ITEM: TIMESTEP
0
ITEM: NUMBER OF ATOMS
40
ITEM: BOX BOUNDS pp pp pp
0 10
0 4
-0.0005 0.0005
ITEM: ATOMS id type xs ys zs
1 1 0 0 0.5
2 1 0.1 0 0.5
3 1 0.2 0 0.5
4 1 0.3 0 0.5
5 1 0.4 0 0.5
6 1 0.5 0 0.5
7 1 0.6 0 0.5
8 1 0.7 0 0.5
9 1 0.8 0 0.5
10 1 0.9 0 0.5
11 1 0 0.25 0.5
12 1 0.1 0.25 0.5
13 1 0.2 0.25 0.5
14 1 0.3 0.25 0.5
15 1 0.4 0.25 0.5
16 1 0.5 0.25 0.5
17 1 0.6 0.25 0.5
18 1 0.7 0.25 0.5
19 1 0.8 0.25 0.5
20 1 0.9 0.25 0.5
21 1 0 0.5 0.5
22 1 0.1 0.5 0.5
23 1 0.2 0.5 0.5
24 1 0.3 0.5 0.5
25 1 0.4 0.5 0.5
26 1 0.5 0.5 0.5
27 1 0.6 0.5 0.5
28 1 0.7 0.5 0.5
29 1 0.8 0.5 0.5
30 1 0.9 0.5 0.5
31 1 0 0.75 0.5
32 1 0.1 0.75 0.5
33 1 0.2 0.75 0.5
34 1 0.3 0.75 0.5
35 1 0.4 0.75 0.5
36 1 0.5 0.75 0.5
37 1 0.6 0.75 0.5
38 1 0.7 0.75 0.5
39 1 0.8 0.75 0.5
40 1 0.9 0.75 0.5
ITEM: TIMESTEP
100
ITEM: NUMBER OF ATOMS
40
ITEM: BOX BOUNDS pp pp pp
-0.00024985 10.0002
-9.994e-05 4.0001
-0.0005 0.0005
ITEM: ATOMS id type xs ys zs
1 1 0 1 0.5
2 1 0.1 3.72676e-20 0.5
3 1 0.2 1.69398e-20 0.5
4 1 0.3 3.72676e-20 0.5
5 1 0.4 4.74315e-20 0.5
6 1 0.5 1.35518e-20 0.5
7 1 0.6 1 0.5
8 1 0.7 1 0.5
9 1 0.8 3.72676e-20 0.5
10 1 0.9 3.72676e-20 0.5
11 1 5.42074e-21 0.25 0.5
12 1 0.1 0.25 0.5
13 1 0.2 0.25 0.5
14 1 0.3 0.25 0.5
15 1 0.4 0.25 0.5
16 1 0.5 0.25 0.5
17 1 0.6 0.25 0.5
18 1 0.7 0.25 0.5
19 1 0.8 0.25 0.5
20 1 0.9 0.25 0.5
21 1 1.62622e-20 0.5 0.5
22 1 0.1 0.5 0.5
23 1 0.2 0.5 0.5
24 1 0.3 0.5 0.5
25 1 0.4 0.5 0.5
26 1 0.5 0.5 0.5
27 1 0.6 0.5 0.5
28 1 0.7 0.5 0.5
29 1 0.8 0.5 0.5
30 1 0.9 0.5 0.5
31 1 5.42074e-21 0.75 0.5
32 1 0.1 0.75 0.5
33 1 0.2 0.75 0.5
34 1 0.3 0.75 0.5
35 1 0.4 0.75 0.5
36 1 0.5 0.75 0.5
37 1 0.6 0.75 0.5
38 1 0.7 0.75 0.5
39 1 0.8 0.75 0.5
40 1 0.9 0.75 0.5
ITEM: TIMESTEP
200
ITEM: NUMBER OF ATOMS
40
ITEM: BOX BOUNDS pp pp pp
-0.000999473 10.001
-0.000399789 4.0004
-0.0005 0.0005
ITEM: ATOMS id type xs ys zs
1 1 0 1.11e-16 0.5
2 1 0.1 4.06495e-20 0.5
3 1 0.2 2.70996e-20 0.5
4 1 0.3 4.06495e-20 0.5
5 1 0.4 5.41993e-20 0.5
6 1 0.5 1.35498e-20 0.5
7 1 0.6 1.11e-16 0.5
8 1 0.7 1.11e-16 0.5
9 1 0.8 4.06495e-20 0.5
10 1 0.9 4.06495e-20 0.5
11 1 2.16797e-20 0.25 0.5
12 1 0.1 0.25 0.5
13 1 0.2 0.25 0.5
14 1 0.3 0.25 0.5
15 1 0.4 0.25 0.5
16 1 0.5 0.25 0.5
17 1 0.6 0.25 0.5
18 1 0.7 0.25 0.5
19 1 0.8 0.25 0.5
20 1 0.9 0.25 0.5
21 1 2.16797e-20 0.5 0.5
22 1 0.1 0.5 0.5
23 1 0.2 0.5 0.5
24 1 0.3 0.5 0.5
25 1 0.4 0.5 0.5
26 1 0.5 0.5 0.5
27 1 0.6 0.5 0.5
28 1 0.7 0.5 0.5
29 1 0.8 0.5 0.5
30 1 0.9 0.5 0.5
31 1 2.16797e-20 0.75 0.5
32 1 0.1 0.75 0.5
33 1 0.2 0.75 0.5
34 1 0.3 0.75 0.5
35 1 0.4 0.75 0.5
36 1 0.5 0.75 0.5
37 1 0.6 0.75 0.5
38 1 0.7 0.75 0.5
39 1 0.8 0.75 0.5
40 1 0.9 0.75 0.5
ITEM: TIMESTEP
300
ITEM: NUMBER OF ATOMS
40
ITEM: BOX BOUNDS pp pp pp
-0.00224909 10.0022
-0.000899636 4.0009
-0.0005 0.0005
ITEM: ATOMS id type xs ys zs
1 1 0 1.10972e-16 0.5
2 1 0.1 5.41857e-20 0.5
3 1 0.2 2.70929e-20 0.5
4 1 0.3 5.41857e-20 0.5
5 1 0.4 5.41857e-20 0.5
6 1 0.5 2.70929e-20 0.5
7 1 0.6 1.10972e-16 0.5
8 1 0.7 1.10972e-16 0.5
9 1 0.8 5.41857e-20 0.5
10 1 0.9 5.41857e-20 0.5
11 1 4.33486e-20 0.25 0.5
12 1 0.1 0.25 0.5
13 1 0.2 0.25 0.5
14 1 0.3 0.25 0.5
15 1 0.4 0.25 0.5
16 1 0.5 0.25 0.5
17 1 0.6 0.25 0.5
18 1 0.7 0.25 0.5
19 1 0.8 0.25 0.5
20 1 0.9 0.25 0.5
21 1 4.33486e-20 0.5 0.5
22 1 0.1 0.5 0.5
23 1 0.2 0.5 0.5
24 1 0.3 0.5 0.5
25 1 0.4 0.5 0.5
26 1 0.5 0.5 0.5
27 1 0.6 0.5 0.5
28 1 0.7 0.5 0.5
29 1 0.8 0.5 0.5
30 1 0.9 0.5 0.5
31 1 4.33486e-20 0.75 0.5
32 1 0.1 0.75 0.5
33 1 0.2 0.75 0.5
34 1 0.3 0.75 0.5
35 1 0.4 0.75 0.5
36 1 0.5 0.75 0.5
37 1 0.6 0.75 0.5
38 1 0.7 0.75 0.5
39 1 0.8 0.75 0.5
40 1 0.9 0.75 0.5
ITEM: TIMESTEP
400
ITEM: NUMBER OF ATOMS
40
ITEM: BOX BOUNDS pp pp pp
-0.00399907 10.004
-0.00159963 4.0016
-0.0005 0.0005
ITEM: ATOMS id type xs ys zs
1 1 0 1.10934e-16 0.5
2 1 0.1 5.41668e-20 0.5
3 1 0.2 5.41668e-20 0.5
4 1 0.3 5.41668e-20 0.5
5 1 0.4 5.41668e-20 0.5
6 1 0.5 5.41668e-20 0.5
7 1 0.6 1.10934e-16 0.5
8 1 0.7 1.10934e-16 0.5
9 1 0.8 5.41668e-20 0.5
10 1 0.9 5.41668e-20 0.5
11 1 8.66669e-20 0.25 0.5
12 1 0.1 0.25 0.5
13 1 0.2 0.25 0.5
14 1 0.3 0.25 0.5
15 1 0.4 0.25 0.5
16 1 0.5 0.25 0.5
17 1 0.6 0.25 0.5
18 1 0.7 0.25 0.5
19 1 0.8 0.25 0.5
20 1 0.9 0.25 0.5
21 1 8.66669e-20 0.5 0.5
22 1 0.1 0.5 0.5
23 1 0.2 0.5 0.5
24 1 0.3 0.5 0.5
25 1 0.4 0.5 0.5
26 1 0.5 0.5 0.5
27 1 0.6 0.5 0.5
28 1 0.7 0.5 0.5
29 1 0.8 0.5 0.5
30 1 0.9 0.5 0.5
31 1 8.66669e-20 0.75 0.5
32 1 0.1 0.75 0.5
33 1 0.2 0.75 0.5
34 1 0.3 0.75 0.5
35 1 0.4 0.75 0.5
36 1 0.5 0.75 0.5
37 1 0.6 0.75 0.5
38 1 0.7 0.75 0.5
39 1 0.8 0.75 0.5
40 1 0.9 0.75 0.5
ITEM: TIMESTEP
500
ITEM: NUMBER OF ATOMS
40
ITEM: BOX BOUNDS pp pp pp
-0.00624991 10.0062
-0.00249996 4.0025
-0.0005 0.0005
ITEM: ATOMS id type xs ys zs
1 1 0 1.10884e-16 0.5
2 1 0.1 1.08285e-19 0.5
3 1 0.2 1.08285e-19 0.5
4 1 0.3 1.08285e-19 0.5
5 1 0.4 1.08285e-19 0.5
6 1 0.5 1.08285e-19 0.5
7 1 0.6 1.10884e-16 0.5
8 1 0.7 1.10884e-16 0.5
9 1 0.8 1.08285e-19 0.5
10 1 0.9 1.08285e-19 0.5
11 1 8.66279e-20 0.25 0.5
12 1 0.1 0.25 0.5
13 1 0.2 0.25 0.5
14 1 0.3 0.25 0.5
15 1 0.4 0.25 0.5
16 1 0.5 0.25 0.5
17 1 0.6 0.25 0.5
18 1 0.7 0.25 0.5
19 1 0.8 0.25 0.5
20 1 0.9 0.25 0.5
21 1 8.66279e-20 0.5 0.5
22 1 0.1 0.5 0.5
23 1 0.2 0.5 0.5
24 1 0.3 0.5 0.5
25 1 0.4 0.5 0.5
26 1 0.5 0.5 0.5
27 1 0.6 0.5 0.5
28 1 0.7 0.5 0.5
29 1 0.8 0.5 0.5
30 1 0.9 0.5 0.5
31 1 8.66279e-20 0.75 0.5
32 1 0.1 0.75 0.5
33 1 0.2 0.75 0.5
34 1 0.3 0.75 0.5
35 1 0.4 0.75 0.5
36 1 0.5 0.75 0.5
37 1 0.6 0.75 0.5
38 1 0.7 0.75 0.5
39 1 0.8 0.75 0.5
40 1 0.9 0.75 0.5
ITEM: TIMESTEP
600
ITEM: NUMBER OF ATOMS
40
ITEM: BOX BOUNDS pp pp pp
-0.00900227 10.009
-0.00360091 4.0036
-0.0005 0.0005
ITEM: ATOMS id type xs ys zs
1 1 0 1.10823e-16 0.5
2 1 0.1 1.08225e-19 0.5
3 1 0.2 1.08225e-19 0.5
4 1 0.3 1.08225e-19 0.5
5 1 0.4 1.08225e-19 0.5
6 1 0.5 1.08225e-19 0.5
7 1 0.6 1.10823e-16 0.5
8 1 0.7 1.10823e-16 0.5
9 1 0.8 1.08225e-19 0.5
10 1 0.9 1.08225e-19 0.5
11 1 1.73161e-19 0.25 0.5
12 1 0.1 0.25 0.5
13 1 0.2 0.25 0.5
14 1 0.3 0.25 0.5
15 1 0.4 0.25 0.5
16 1 0.5 0.25 0.5
17 1 0.6 0.25 0.5
18 1 0.7 0.25 0.5
19 1 0.8 0.25 0.5
20 1 0.9 0.25 0.5
21 1 1.73161e-19 0.5 0.5
22 1 0.1 0.5 0.5
23 1 0.2 0.5 0.5
24 1 0.3 0.5 0.5
25 1 0.4 0.5 0.5
26 1 0.5 0.5 0.5
27 1 0.6 0.5 0.5
28 1 0.7 0.5 0.5
29 1 0.8 0.5 0.5
30 1 0.9 0.5 0.5
31 1 1.73161e-19 0.75 0.5
32 1 0.1 0.75 0.5
33 1 0.2 0.75 0.5
34 1 0.3 0.75 0.5
35 1 0.4 0.75 0.5
36 1 0.5 0.75 0.5
37 1 0.6 0.75 0.5
38 1 0.7 0.75 0.5
39 1 0.8 0.75 0.5
40 1 0.9 0.75 0.5
ITEM: TIMESTEP
700
ITEM: NUMBER OF ATOMS
40
ITEM: BOX BOUNDS pp pp pp
-0.0122569 10.0123
-0.00490277 4.0049
-0.0005 0.0005
ITEM: ATOMS id type xs ys zs
1 1 0 1.10751e-16 0.5
2 1 0.1 2.1631e-19 0.5
3 1 0.2 2.1631e-19 0.5
4 1 0.3 2.1631e-19 0.5
5 1 0.4 2.1631e-19 0.5
6 1 0.5 2.1631e-19 0.5
7 1 0.6 1.10751e-16 0.5
8 1 0.7 1.10751e-16 0.5
9 1 0.8 2.1631e-19 0.5
10 1 0.9 2.1631e-19 0.5
11 1 1.73048e-19 0.25 0.5
12 1 0.1 0.25 0.5
13 1 0.2 0.25 0.5
14 1 0.3 0.25 0.5
15 1 0.4 0.25 0.5
16 1 0.5 0.25 0.5
17 1 0.6 0.25 0.5
18 1 0.7 0.25 0.5
19 1 0.8 0.25 0.5
20 1 0.9 0.25 0.5
21 1 1.73048e-19 0.5 0.5
22 1 0.1 0.5 0.5
23 1 0.2 0.5 0.5
24 1 0.3 0.5 0.5
25 1 0.4 0.5 0.5
26 1 0.5 0.5 0.5
27 1 0.6 0.5 0.5
28 1 0.7 0.5 0.5
29 1 0.8 0.5 0.5
30 1 0.9 0.5 0.5
31 1 1.73048e-19 0.75 0.5
32 1 0.1 0.75 0.5
33 1 0.2 0.75 0.5
34 1 0.3 0.75 0.5
35 1 0.4 0.75 0.5
36 1 0.5 0.75 0.5
37 1 0.6 0.75 0.5
38 1 0.7 0.75 0.5
39 1 0.8 0.75 0.5
40 1 0.9 0.75 0.5
ITEM: TIMESTEP
800
ITEM: NUMBER OF ATOMS
40
ITEM: BOX BOUNDS pp pp pp
-0.0160148 10.016
-0.00640593 4.00641
-0.0005 0.0005
ITEM: ATOMS id type xs ys zs
1 1 0 1.10668e-16 0.5
2 1 0.1 2.16148e-19 0.5
3 1 0.2 2.16148e-19 0.5
4 1 0.3 2.16148e-19 0.5
5 1 0.4 2.16148e-19 0.5
6 1 0.5 2.16148e-19 0.5
7 1 0.6 1.10668e-16 0.5
8 1 0.7 1.10668e-16 0.5
9 1 0.8 2.16148e-19 0.5
10 1 0.9 2.16148e-19 0.5
11 1 3.45837e-19 0.25 0.5
12 1 0.1 0.25 0.5
13 1 0.2 0.25 0.5
14 1 0.3 0.25 0.5
15 1 0.4 0.25 0.5
16 1 0.5 0.25 0.5
17 1 0.6 0.25 0.5
18 1 0.7 0.25 0.5
19 1 0.8 0.25 0.5
20 1 0.9 0.25 0.5
21 1 3.45837e-19 0.5 0.5
22 1 0.1 0.5 0.5
23 1 0.2 0.5 0.5
24 1 0.3 0.5 0.5
25 1 0.4 0.5 0.5
26 1 0.5 0.5 0.5
27 1 0.6 0.5 0.5
28 1 0.7 0.5 0.5
29 1 0.8 0.5 0.5
30 1 0.9 0.5 0.5
31 1 3.45837e-19 0.75 0.5
32 1 0.1 0.75 0.5
33 1 0.2 0.75 0.5
34 1 0.3 0.75 0.5
35 1 0.4 0.75 0.5
36 1 0.5 0.75 0.5
37 1 0.6 0.75 0.5
38 1 0.7 0.75 0.5
39 1 0.8 0.75 0.5
40 1 0.9 0.75 0.5
ITEM: TIMESTEP
900
ITEM: NUMBER OF ATOMS
40
ITEM: BOX BOUNDS pp pp pp
-0.020277 10.0203
-0.00811078 4.00811
-0.0005 0.0005
ITEM: ATOMS id type xs ys zs
1 1 0 1.10574e-16 0.5
2 1 0.1 4.31929e-19 0.5
3 1 0.2 4.31929e-19 0.5
4 1 0.3 4.31929e-19 0.5
5 1 0.4 4.31929e-19 0.5
6 1 0.5 4.31929e-19 0.5
7 1 0.6 1.10574e-16 0.5
8 1 0.7 1.10574e-16 0.5
9 1 0.8 4.31929e-19 0.5
10 1 0.9 4.31929e-19 0.5
11 1 3.45543e-19 0.25 0.5
12 1 0.1 0.25 0.5
13 1 0.2 0.25 0.5
14 1 0.3 0.25 0.5
15 1 0.4 0.25 0.5
16 1 0.5 0.25 0.5
17 1 0.6 0.25 0.5
18 1 0.7 0.25 0.5
19 1 0.8 0.25 0.5
20 1 0.9 0.25 0.5
21 1 3.45543e-19 0.5 0.5
22 1 0.1 0.5 0.5
23 1 0.2 0.5 0.5
24 1 0.3 0.5 0.5
25 1 0.4 0.5 0.5
26 1 0.5 0.5 0.5
27 1 0.6 0.5 0.5
28 1 0.7 0.5 0.5
29 1 0.8 0.5 0.5
30 1 0.9 0.5 0.5
31 1 3.45543e-19 0.75 0.5
32 1 0.1 0.75 0.5
33 1 0.2 0.75 0.5
34 1 0.3 0.75 0.5
35 1 0.4 0.75 0.5
36 1 0.5 0.75 0.5
37 1 0.6 0.75 0.5
38 1 0.7 0.75 0.5
39 1 0.8 0.75 0.5
40 1 0.9 0.75 0.5
ITEM: TIMESTEP
1000
ITEM: NUMBER OF ATOMS
40
ITEM: BOX BOUNDS pp pp pp
-0.0250445 10.025
-0.0100178 4.01002
-0.0005 0.0005
ITEM: ATOMS id type xs ys zs
1 1 0 1.10469e-16 0.5
2 1 0.1 4.31519e-19 0.5
3 1 0.2 4.31519e-19 0.5
4 1 0.3 4.31519e-19 0.5
5 1 0.4 4.31519e-19 0.5
6 1 0.5 4.31519e-19 0.5
7 1 0.6 1.10469e-16 0.5
8 1 0.7 1.10469e-16 0.5
9 1 0.8 4.31519e-19 0.5
10 1 0.9 4.31519e-19 0.5
11 1 3.45216e-19 0.25 0.5
12 1 0.1 0.25 0.5
13 1 0.2 0.25 0.5
14 1 0.3 0.25 0.5
15 1 0.4 0.25 0.5
16 1 0.5 0.25 0.5
17 1 0.6 0.25 0.5
18 1 0.7 0.25 0.5
19 1 0.8 0.25 0.5
20 1 0.9 0.25 0.5
21 1 3.45216e-19 0.5 0.5
22 1 0.1 0.5 0.5
23 1 0.2 0.5 0.5
24 1 0.3 0.5 0.5
25 1 0.4 0.5 0.5
26 1 0.5 0.5 0.5
27 1 0.6 0.5 0.5
28 1 0.7 0.5 0.5
29 1 0.8 0.5 0.5
30 1 0.9 0.5 0.5
31 1 3.45216e-19 0.75 0.5
32 1 0.1 0.75 0.5
33 1 0.2 0.75 0.5
34 1 0.3 0.75 0.5
35 1 0.4 0.75 0.5
36 1 0.5 0.75 0.5
37 1 0.6 0.75 0.5
38 1 0.7 0.75 0.5
39 1 0.8 0.75 0.5
40 1 0.9 0.75 0.5
ITEM: TIMESTEP
1100
ITEM: NUMBER OF ATOMS
40
ITEM: BOX BOUNDS pp pp pp
-0.0303188 10.0303
-0.0121275 4.01213
-0.0005 0.0005
ITEM: ATOMS id type xs ys zs
1 1 0 1.10353e-16 0.5
2 1 0.1 4.31067e-19 0.5
3 1 0.2 4.31067e-19 0.5
4 1 0.3 4.31067e-19 0.5
5 1 0.4 4.31067e-19 0.5
6 1 0.5 4.31067e-19 0.5
7 1 0.6 1.10353e-16 0.5
8 1 0.7 1.10353e-16 0.5
9 1 0.8 4.31067e-19 0.5
10 1 0.9 4.31067e-19 0.5
11 1 3.44854e-19 0.25 0.5
12 1 0.1 0.25 0.5
13 1 0.2 0.25 0.5
14 1 0.3 0.25 0.5
15 1 0.4 0.25 0.5
16 1 0.5 0.25 0.5
17 1 0.6 0.25 0.5
18 1 0.7 0.25 0.5
19 1 0.8 0.25 0.5
20 1 0.9 0.25 0.5
21 1 3.44854e-19 0.5 0.5
22 1 0.1 0.5 0.5
23 1 0.2 0.5 0.5
24 1 0.3 0.5 0.5
25 1 0.4 0.5 0.5
26 1 0.5 0.5 0.5
27 1 0.6 0.5 0.5
28 1 0.7 0.5 0.5
29 1 0.8 0.5 0.5
30 1 0.9 0.5 0.5
31 1 3.44854e-19 0.75 0.5
32 1 0.1 0.75 0.5
33 1 0.2 0.75 0.5
34 1 0.3 0.75 0.5
35 1 0.4 0.75 0.5
36 1 0.5 0.75 0.5
37 1 0.6 0.75 0.5
38 1 0.7 0.75 0.5
39 1 0.8 0.75 0.5
40 1 0.9 0.75 0.5
ITEM: TIMESTEP
1200
ITEM: NUMBER OF ATOMS
40
ITEM: BOX BOUNDS pp pp pp
-0.0361013 10.0361
-0.0144405 4.01444
-0.0005 0.0005
ITEM: ATOMS id type xs ys zs
1 1 0 1.10226e-16 0.5
2 1 0.1 4.30572e-19 0.5
3 1 0.2 4.30572e-19 0.5
4 1 0.3 4.30572e-19 0.5
5 1 0.4 4.30572e-19 0.5
6 1 0.5 4.30572e-19 0.5
7 1 0.6 1.10226e-16 0.5
8 1 0.7 1.10226e-16 0.5
9 1 0.8 4.30572e-19 0.5
10 1 0.9 4.30572e-19 0.5
11 1 6.88915e-19 0.25 0.5
12 1 0.1 0.25 0.5
13 1 0.2 0.25 0.5
14 1 0.3 0.25 0.5
15 1 0.4 0.25 0.5
16 1 0.5 0.25 0.5
17 1 0.6 0.25 0.5
18 1 0.7 0.25 0.5
19 1 0.8 0.25 0.5
20 1 0.9 0.25 0.5
21 1 6.88915e-19 0.5 0.5
22 1 0.1 0.5 0.5
23 1 0.2 0.5 0.5
24 1 0.3 0.5 0.5
25 1 0.4 0.5 0.5
26 1 0.5 0.5 0.5
27 1 0.6 0.5 0.5
28 1 0.7 0.5 0.5
29 1 0.8 0.5 0.5
30 1 0.9 0.5 0.5
31 1 6.88915e-19 0.75 0.5
32 1 0.1 0.75 0.5
33 1 0.2 0.75 0.5
34 1 0.3 0.75 0.5
35 1 0.4 0.75 0.5
36 1 0.5 0.75 0.5
37 1 0.6 0.75 0.5
38 1 0.7 0.75 0.5
39 1 0.8 0.75 0.5
40 1 0.9 0.75 0.5
ITEM: TIMESTEP
1300
ITEM: NUMBER OF ATOMS
40
ITEM: BOX BOUNDS pp pp pp
-0.0423935 10.0424
-0.0169574 4.01696
-0.0005 0.0005
ITEM: ATOMS id type xs ys zs
1 1 0 1.10089e-16 0.5
2 1 0.1 8.60069e-19 0.5
3 1 0.2 8.60069e-19 0.5
4 1 0.3 8.60069e-19 0.5
5 1 0.4 8.60069e-19 0.5
6 1 0.5 8.60069e-19 0.5
7 1 0.6 1.10089e-16 0.5
8 1 0.7 1.10089e-16 0.5
9 1 0.8 8.60069e-19 0.5
10 1 0.9 8.60069e-19 0.5
11 1 6.88056e-19 0.25 0.5
12 1 0.1 0.25 0.5
13 1 0.2 0.25 0.5
14 1 0.3 0.25 0.5
15 1 0.4 0.25 0.5
16 1 0.5 0.25 0.5
17 1 0.6 0.25 0.5
18 1 0.7 0.25 0.5
19 1 0.8 0.25 0.5
20 1 0.9 0.25 0.5
21 1 6.88056e-19 0.5 0.5
22 1 0.1 0.5 0.5
23 1 0.2 0.5 0.5
24 1 0.3 0.5 0.5
25 1 0.4 0.5 0.5
26 1 0.5 0.5 0.5
27 1 0.6 0.5 0.5
28 1 0.7 0.5 0.5
29 1 0.8 0.5 0.5
30 1 0.9 0.5 0.5
31 1 6.88056e-19 0.75 0.5
32 1 0.1 0.75 0.5
33 1 0.2 0.75 0.5
34 1 0.3 0.75 0.5
35 1 0.4 0.75 0.5
36 1 0.5 0.75 0.5
37 1 0.6 0.75 0.5
38 1 0.7 0.75 0.5
39 1 0.8 0.75 0.5
40 1 0.9 0.75 0.5
ITEM: TIMESTEP
1400
ITEM: NUMBER OF ATOMS
40
ITEM: BOX BOUNDS pp pp pp
-0.049197 10.0492
-0.0196788 4.01968
-0.0005 0.0005
ITEM: ATOMS id type xs ys zs
1 1 0 1.09941e-16 0.5
2 1 0.1 8.58911e-19 0.5
3 1 0.2 8.58911e-19 0.5
4 1 0.3 8.58911e-19 0.5
5 1 0.4 8.58911e-19 0.5
6 1 0.5 8.58911e-19 0.5
7 1 0.6 1.09941e-16 0.5
8 1 0.7 1.09941e-16 0.5
9 1 0.8 8.58911e-19 0.5
10 1 0.9 8.58911e-19 0.5
11 1 6.87128e-19 0.25 0.5
12 1 0.1 0.25 0.5
13 1 0.2 0.25 0.5
14 1 0.3 0.25 0.5
15 1 0.4 0.25 0.5
16 1 0.5 0.25 0.5
17 1 0.6 0.25 0.5
18 1 0.7 0.25 0.5
19 1 0.8 0.25 0.5
20 1 0.9 0.25 0.5
21 1 6.87128e-19 0.5 0.5
22 1 0.1 0.5 0.5
23 1 0.2 0.5 0.5
24 1 0.3 0.5 0.5
25 1 0.4 0.5 0.5
26 1 0.5 0.5 0.5
27 1 0.6 0.5 0.5
28 1 0.7 0.5 0.5
29 1 0.8 0.5 0.5
30 1 0.9 0.5 0.5
31 1 6.87128e-19 0.75 0.5
32 1 0.1 0.75 0.5
33 1 0.2 0.75 0.5
34 1 0.3 0.75 0.5
35 1 0.4 0.75 0.5
36 1 0.5 0.75 0.5
37 1 0.6 0.75 0.5
38 1 0.7 0.75 0.5
39 1 0.8 0.75 0.5
40 1 0.9 0.75 0.5
ITEM: TIMESTEP
1500
ITEM: NUMBER OF ATOMS
40
ITEM: BOX BOUNDS pp pp pp
-0.0565139 10.0565
-0.0226056 4.02261
-0.0005 0.0005
ITEM: ATOMS id type xs ys zs
1 1 0 1.09781e-16 0.5
2 1 0.1 8.57668e-19 0.5
3 1 0.2 8.57668e-19 0.5
4 1 0.3 8.57668e-19 0.5
5 1 0.4 8.57668e-19 0.5
6 1 0.5 8.57668e-19 0.5
7 1 0.6 1.09781e-16 0.5
8 1 0.7 1.09781e-16 0.5
9 1 0.8 8.57668e-19 0.5
10 1 0.9 8.57668e-19 0.5
11 1 6.86134e-19 0.25 0.5
12 1 0.1 0.25 0.5
13 1 0.2 0.25 0.5
14 1 0.3 0.25 0.5
15 1 0.4 0.25 0.5
16 1 0.5 0.25 0.5
17 1 0.6 0.25 0.5
18 1 0.7 0.25 0.5
19 1 0.8 0.25 0.5
20 1 0.9 0.25 0.5
21 1 6.86134e-19 0.5 0.5
22 1 0.1 0.5 0.5
23 1 0.2 0.5 0.5
24 1 0.3 0.5 0.5
25 1 0.4 0.5 0.5
26 1 0.5 0.5 0.5
27 1 0.6 0.5 0.5
28 1 0.7 0.5 0.5
29 1 0.8 0.5 0.5
30 1 0.9 0.5 0.5
31 1 6.86134e-19 0.75 0.5
32 1 0.1 0.75 0.5
33 1 0.2 0.75 0.5
34 1 0.3 0.75 0.5
35 1 0.4 0.75 0.5
36 1 0.5 0.75 0.5
37 1 0.6 0.75 0.5
38 1 0.7 0.75 0.5
39 1 0.8 0.75 0.5
40 1 0.9 0.75 0.5
ITEM: TIMESTEP
1600
ITEM: NUMBER OF ATOMS
40
ITEM: BOX BOUNDS pp pp pp
-0.0643462 10.0643
-0.0257385 4.02574
-0.0005 0.0005
ITEM: ATOMS id type xs ys zs
1 1 0 1.09612e-16 0.5
2 1 0.1 8.56341e-19 0.5
3 1 0.2 8.56341e-19 0.5
4 1 0.3 8.56341e-19 0.5
5 1 0.4 8.56341e-19 0.5
6 1 0.5 8.56341e-19 0.5
7 1 0.6 1.09612e-16 0.5
8 1 0.7 1.09612e-16 0.5
9 1 0.8 8.56341e-19 0.5
10 1 0.9 8.56341e-19 0.5
11 1 1.37015e-18 0.25 0.5
12 1 0.1 0.25 0.5
13 1 0.2 0.25 0.5
14 1 0.3 0.25 0.5
15 1 0.4 0.25 0.5
16 1 0.5 0.25 0.5
17 1 0.6 0.25 0.5
18 1 0.7 0.25 0.5
19 1 0.8 0.25 0.5
20 1 0.9 0.25 0.5
21 1 1.37015e-18 0.5 0.5
22 1 0.1 0.5 0.5
23 1 0.2 0.5 0.5
24 1 0.3 0.5 0.5
25 1 0.4 0.5 0.5
26 1 0.5 0.5 0.5
27 1 0.6 0.5 0.5
28 1 0.7 0.5 0.5
29 1 0.8 0.5 0.5
30 1 0.9 0.5 0.5
31 1 1.37015e-18 0.75 0.5
32 1 0.1 0.75 0.5
33 1 0.2 0.75 0.5
34 1 0.3 0.75 0.5
35 1 0.4 0.75 0.5
36 1 0.5 0.75 0.5
37 1 0.6 0.75 0.5
38 1 0.7 0.75 0.5
39 1 0.8 0.75 0.5
40 1 0.9 0.75 0.5
ITEM: TIMESTEP
1700
ITEM: NUMBER OF ATOMS
40
ITEM: BOX BOUNDS pp pp pp
-0.0726962 10.0727
-0.0290785 4.02908
-0.0005 0.0005
ITEM: ATOMS id type xs ys zs
1 1 0 1.09431e-16 0.5
2 1 0.1 8.54932e-19 0.5
3 1 0.2 8.54932e-19 0.5
4 1 0.3 8.54932e-19 0.5
5 1 0.4 8.54932e-19 0.5
6 1 0.5 8.54932e-19 0.5
7 1 0.6 1.09431e-16 0.5
8 1 0.7 1.09431e-16 0.5
9 1 0.8 8.54932e-19 0.5
10 1 0.9 8.54932e-19 0.5
11 1 1.36789e-18 0.25 0.5
12 1 0.1 0.25 0.5
13 1 0.2 0.25 0.5
14 1 0.3 0.25 0.5
15 1 0.4 0.25 0.5
16 1 0.5 0.25 0.5
17 1 0.6 0.25 0.5
18 1 0.7 0.25 0.5
19 1 0.8 0.25 0.5
20 1 0.9 0.25 0.5
21 1 1.36789e-18 0.5 0.5
22 1 0.1 0.5 0.5
23 1 0.2 0.5 0.5
24 1 0.3 0.5 0.5
25 1 0.4 0.5 0.5
26 1 0.5 0.5 0.5
27 1 0.6 0.5 0.5
28 1 0.7 0.5 0.5
29 1 0.8 0.5 0.5
30 1 0.9 0.5 0.5
31 1 1.36789e-18 0.75 0.5
32 1 0.1 0.75 0.5
33 1 0.2 0.75 0.5
34 1 0.3 0.75 0.5
35 1 0.4 0.75 0.5
36 1 0.5 0.75 0.5
37 1 0.6 0.75 0.5
38 1 0.7 0.75 0.5
39 1 0.8 0.75 0.5
40 1 0.9 0.75 0.5
ITEM: TIMESTEP
1800
ITEM: NUMBER OF ATOMS
40
ITEM: BOX BOUNDS pp pp pp
-0.0815666 10.0816
-0.0326266 4.03263
-0.0005 0.0005
ITEM: ATOMS id type xs ys zs
1 1 0 1.0924e-16 0.5
2 1 0.1 1.70688e-18 0.5
3 1 0.2 1.70688e-18 0.5
4 1 0.3 1.70688e-18 0.5
5 1 0.4 1.70688e-18 0.5
6 1 0.5 1.70688e-18 0.5
7 1 0.6 1.0924e-16 0.5
8 1 0.7 1.0924e-16 0.5
9 1 0.8 1.70688e-18 0.5
10 1 0.9 1.70688e-18 0.5
11 1 1.3655e-18 0.25 0.5
12 1 0.1 0.25 0.5
13 1 0.2 0.25 0.5
14 1 0.3 0.25 0.5
15 1 0.4 0.25 0.5
16 1 0.5 0.25 0.5
17 1 0.6 0.25 0.5
18 1 0.7 0.25 0.5
19 1 0.8 0.25 0.5
20 1 0.9 0.25 0.5
21 1 1.3655e-18 0.5 0.5
22 1 0.1 0.5 0.5
23 1 0.2 0.5 0.5
24 1 0.3 0.5 0.5
25 1 0.4 0.5 0.5
26 1 0.5 0.5 0.5
27 1 0.6 0.5 0.5
28 1 0.7 0.5 0.5
29 1 0.8 0.5 0.5
30 1 0.9 0.5 0.5
31 1 1.3655e-18 0.75 0.5
32 1 0.1 0.75 0.5
33 1 0.2 0.75 0.5
34 1 0.3 0.75 0.5
35 1 0.4 0.75 0.5
36 1 0.5 0.75 0.5
37 1 0.6 0.75 0.5
38 1 0.7 0.75 0.5
39 1 0.8 0.75 0.5
40 1 0.9 0.75 0.5
ITEM: TIMESTEP
1900
ITEM: NUMBER OF ATOMS
40
ITEM: BOX BOUNDS pp pp pp
-0.0909601 10.091
-0.0363841 4.03638
-0.0005 0.0005
ITEM: ATOMS id type xs ys zs
1 1 0 1.09039e-16 0.5
2 1 0.1 1.70373e-18 0.5
3 1 0.2 1.70373e-18 0.5
4 1 0.3 1.70373e-18 0.5
5 1 0.4 1.70373e-18 0.5
6 1 0.5 1.70373e-18 0.5
7 1 0.6 1.09039e-16 0.5
8 1 0.7 1.09039e-16 0.5
9 1 0.8 1.70373e-18 0.5
10 1 0.9 1.70373e-18 0.5
11 1 1.36298e-18 0.25 0.5
12 1 0.1 0.25 0.5
13 1 0.2 0.25 0.5
14 1 0.3 0.25 0.5
15 1 0.4 0.25 0.5
16 1 0.5 0.25 0.5
17 1 0.6 0.25 0.5
18 1 0.7 0.25 0.5
19 1 0.8 0.25 0.5
20 1 0.9 0.25 0.5
21 1 1.36298e-18 0.5 0.5
22 1 0.1 0.5 0.5
23 1 0.2 0.5 0.5
24 1 0.3 0.5 0.5
25 1 0.4 0.5 0.5
26 1 0.5 0.5 0.5
27 1 0.6 0.5 0.5
28 1 0.7 0.5 0.5
29 1 0.8 0.5 0.5
30 1 0.9 0.5 0.5
31 1 1.36298e-18 0.75 0.5
32 1 0.1 0.75 0.5
33 1 0.2 0.75 0.5
34 1 0.3 0.75 0.5
35 1 0.4 0.75 0.5
36 1 0.5 0.75 0.5
37 1 0.6 0.75 0.5
38 1 0.7 0.75 0.5
39 1 0.8 0.75 0.5
40 1 0.9 0.75 0.5
ITEM: TIMESTEP
2000
ITEM: NUMBER OF ATOMS
40
ITEM: BOX BOUNDS pp pp pp
-0.10088 10.1009
-0.0403521 4.04035
-0.0005 0.0005
ITEM: ATOMS id type xs ys zs
1 1 0 1.08827e-16 0.5
2 1 0.1 1.70042e-18 0.5
3 1 0.2 1.70042e-18 0.5
4 1 0.3 1.70042e-18 0.5
5 1 0.4 1.70042e-18 0.5
6 1 0.5 1.70042e-18 0.5
7 1 0.6 1.08827e-16 0.5
8 1 0.7 1.08827e-16 0.5
9 1 0.8 1.70042e-18 0.5
10 1 0.9 1.70042e-18 0.5
11 1 1.36033e-18 0.25 0.5
12 1 0.1 0.25 0.5
13 1 0.2 0.25 0.5
14 1 0.3 0.25 0.5
15 1 0.4 0.25 0.5
16 1 0.5 0.25 0.5
17 1 0.6 0.25 0.5
18 1 0.7 0.25 0.5
19 1 0.8 0.25 0.5
20 1 0.9 0.25 0.5
21 1 1.36033e-18 0.5 0.5
22 1 0.1 0.5 0.5
23 1 0.2 0.5 0.5
24 1 0.3 0.5 0.5
25 1 0.4 0.5 0.5
26 1 0.5 0.5 0.5
27 1 0.6 0.5 0.5
28 1 0.7 0.5 0.5
29 1 0.8 0.5 0.5
30 1 0.9 0.5 0.5
31 1 1.36033e-18 0.75 0.5
32 1 0.1 0.75 0.5
33 1 0.2 0.75 0.5
34 1 0.3 0.75 0.5
35 1 0.4 0.75 0.5
36 1 0.5 0.75 0.5
37 1 0.6 0.75 0.5
38 1 0.7 0.75 0.5
39 1 0.8 0.75 0.5
40 1 0.9 0.75 0.5
ITEM: TIMESTEP
2100
ITEM: NUMBER OF ATOMS
40
ITEM: BOX BOUNDS pp pp pp
-0.11133 10.1113
-0.0445322 4.04453
-0.0005 0.0005
ITEM: ATOMS id type xs ys zs
1 1 0 1.08604e-16 0.5
2 1 0.1 1.69694e-18 0.5
3 1 0.2 1.69694e-18 0.5
4 1 0.3 1.69694e-18 0.5
5 1 0.4 1.69694e-18 0.5
6 1 0.5 1.69694e-18 0.5
7 1 0.6 1.08604e-16 0.5
8 1 0.7 1.08604e-16 0.5
9 1 0.8 1.69694e-18 0.5
10 1 0.9 1.69694e-18 0.5
11 1 1.35755e-18 0.25 0.5
12 1 0.1 0.25 0.5
13 1 0.2 0.25 0.5
14 1 0.3 0.25 0.5
15 1 0.4 0.25 0.5
16 1 0.5 0.25 0.5
17 1 0.6 0.25 0.5
18 1 0.7 0.25 0.5
19 1 0.8 0.25 0.5
20 1 0.9 0.25 0.5
21 1 1.35755e-18 0.5 0.5
22 1 0.1 0.5 0.5
23 1 0.2 0.5 0.5
24 1 0.3 0.5 0.5
25 1 0.4 0.5 0.5
26 1 0.5 0.5 0.5
27 1 0.6 0.5 0.5
28 1 0.7 0.5 0.5
29 1 0.8 0.5 0.5
30 1 0.9 0.5 0.5
31 1 1.35755e-18 0.75 0.5
32 1 0.1 0.75 0.5
33 1 0.2 0.75 0.5
34 1 0.3 0.75 0.5
35 1 0.4 0.75 0.5
36 1 0.5 0.75 0.5
37 1 0.6 0.75 0.5
38 1 0.7 0.75 0.5
39 1 0.8 0.75 0.5
40 1 0.9 0.75 0.5
ITEM: TIMESTEP
2200
ITEM: NUMBER OF ATOMS
40
ITEM: BOX BOUNDS pp pp pp
-0.122314 10.1223
-0.0489258 4.04893
-0.0005 0.0005
ITEM: ATOMS id type xs ys zs
1 1 0 1.08371e-16 0.5
2 1 0.1 1.6933e-18 0.5
3 1 0.2 1.6933e-18 0.5
4 1 0.3 1.6933e-18 0.5
5 1 0.4 1.6933e-18 0.5
6 1 0.5 1.6933e-18 0.5
7 1 0.6 1.08371e-16 0.5
8 1 0.7 1.08371e-16 0.5
9 1 0.8 1.6933e-18 0.5
10 1 0.9 1.6933e-18 0.5
11 1 1.35464e-18 0.25 0.5
12 1 0.1 0.25 0.5
13 1 0.2 0.25 0.5
14 1 0.3 0.25 0.5
15 1 0.4 0.25 0.5
16 1 0.5 0.25 0.5
17 1 0.6 0.25 0.5
18 1 0.7 0.25 0.5
19 1 0.8 0.25 0.5
20 1 0.9 0.25 0.5
21 1 1.35464e-18 0.5 0.5
22 1 0.1 0.5 0.5
23 1 0.2 0.5 0.5
24 1 0.3 0.5 0.5
25 1 0.4 0.5 0.5
26 1 0.5 0.5 0.5
27 1 0.6 0.5 0.5
28 1 0.7 0.5 0.5
29 1 0.8 0.5 0.5
30 1 0.9 0.5 0.5
31 1 1.35464e-18 0.75 0.5
32 1 0.1 0.75 0.5
33 1 0.2 0.75 0.5
34 1 0.3 0.75 0.5
35 1 0.4 0.75 0.5
36 1 0.5 0.75 0.5
37 1 0.6 0.75 0.5
38 1 0.7 0.75 0.5
39 1 0.8 0.75 0.5
40 1 0.9 0.75 0.5
ITEM: TIMESTEP
2300
ITEM: NUMBER OF ATOMS
40
ITEM: BOX BOUNDS pp pp pp
-0.133836 10.1338
-0.0535345 4.05353
-0.0005 0.0005
ITEM: ATOMS id type xs ys zs
1 1 0 1.08128e-16 0.5
2 1 0.1 1.6895e-18 0.5
3 1 0.2 1.6895e-18 0.5
4 1 0.3 1.6895e-18 0.5
5 1 0.4 1.6895e-18 0.5
6 1 0.5 1.6895e-18 0.5
7 1 0.6 1.08128e-16 0.5
8 1 0.7 1.08128e-16 0.5
9 1 0.8 1.6895e-18 0.5
10 1 0.9 1.6895e-18 0.5
11 1 2.7032e-18 0.25 0.5
12 1 0.1 0.25 0.5
13 1 0.2 0.25 0.5
14 1 0.3 0.25 0.5
15 1 0.4 0.25 0.5
16 1 0.5 0.25 0.5
17 1 0.6 0.25 0.5
18 1 0.7 0.25 0.5
19 1 0.8 0.25 0.5
20 1 0.9 0.25 0.5
21 1 2.7032e-18 0.5 0.5
22 1 0.1 0.5 0.5
23 1 0.2 0.5 0.5
24 1 0.3 0.5 0.5
25 1 0.4 0.5 0.5
26 1 0.5 0.5 0.5
27 1 0.6 0.5 0.5
28 1 0.7 0.5 0.5
29 1 0.8 0.5 0.5
30 1 0.9 0.5 0.5
31 1 2.7032e-18 0.75 0.5
32 1 0.1 0.75 0.5
33 1 0.2 0.75 0.5
34 1 0.3 0.75 0.5
35 1 0.4 0.75 0.5
36 1 0.5 0.75 0.5
37 1 0.6 0.75 0.5
38 1 0.7 0.75 0.5
39 1 0.8 0.75 0.5
40 1 0.9 0.75 0.5
ITEM: TIMESTEP
2400
ITEM: NUMBER OF ATOMS
40
ITEM: BOX BOUNDS pp pp pp
-0.1459 10.1459
-0.05836 4.05836
-0.0005 0.0005
ITEM: ATOMS id type xs ys zs
1 1 0 1.07875e-16 0.5
2 1 0.1 1.68554e-18 0.5
3 1 0.2 1.68554e-18 0.5
4 1 0.3 1.68554e-18 0.5
5 1 0.4 1.68554e-18 0.5
6 1 0.5 1.68554e-18 0.5
7 1 0.6 1.07875e-16 0.5
8 1 0.7 1.07875e-16 0.5
9 1 0.8 1.68554e-18 0.5
10 1 0.9 1.68554e-18 0.5
11 1 2.69686e-18 0.25 0.5
12 1 0.1 0.25 0.5
13 1 0.2 0.25 0.5
14 1 0.3 0.25 0.5
15 1 0.4 0.25 0.5
16 1 0.5 0.25 0.5
17 1 0.6 0.25 0.5
18 1 0.7 0.25 0.5
19 1 0.8 0.25 0.5
20 1 0.9 0.25 0.5
21 1 2.69686e-18 0.5 0.5
22 1 0.1 0.5 0.5
23 1 0.2 0.5 0.5
24 1 0.3 0.5 0.5
25 1 0.4 0.5 0.5
26 1 0.5 0.5 0.5
27 1 0.6 0.5 0.5
28 1 0.7 0.5 0.5
29 1 0.8 0.5 0.5
30 1 0.9 0.5 0.5
31 1 2.69686e-18 0.75 0.5
32 1 0.1 0.75 0.5
33 1 0.2 0.75 0.5
34 1 0.3 0.75 0.5
35 1 0.4 0.75 0.5
36 1 0.5 0.75 0.5
37 1 0.6 0.75 0.5
38 1 0.7 0.75 0.5
39 1 0.8 0.75 0.5
40 1 0.9 0.75 0.5
ITEM: TIMESTEP
2500
ITEM: NUMBER OF ATOMS
40
ITEM: BOX BOUNDS pp pp pp
-0.158509 10.1585
-0.0634038 4.0634
-0.0005 0.0005
ITEM: ATOMS id type xs ys zs
1 1 0 1.07611e-16 0.5
2 1 0.1 3.36284e-18 0.5
3 1 0.2 3.36284e-18 0.5
4 1 0.3 3.36284e-18 0.5
5 1 0.4 3.36284e-18 0.5
6 1 0.5 3.36284e-18 0.5
7 1 0.6 1.07611e-16 0.5
8 1 0.7 1.07611e-16 0.5
9 1 0.8 3.36284e-18 0.5
10 1 0.9 3.36284e-18 0.5
11 1 2.69027e-18 0.25 0.5
12 1 0.1 0.25 0.5
13 1 0.2 0.25 0.5
14 1 0.3 0.25 0.5
15 1 0.4 0.25 0.5
16 1 0.5 0.25 0.5
17 1 0.6 0.25 0.5
18 1 0.7 0.25 0.5
19 1 0.8 0.25 0.5
20 1 0.9 0.25 0.5
21 1 2.69027e-18 0.5 0.5
22 1 0.1 0.5 0.5
23 1 0.2 0.5 0.5
24 1 0.3 0.5 0.5
25 1 0.4 0.5 0.5
26 1 0.5 0.5 0.5
27 1 0.6 0.5 0.5
28 1 0.7 0.5 0.5
29 1 0.8 0.5 0.5
30 1 0.9 0.5 0.5
31 1 2.69027e-18 0.75 0.5
32 1 0.1 0.75 0.5
33 1 0.2 0.75 0.5
34 1 0.3 0.75 0.5
35 1 0.4 0.75 0.5
36 1 0.5 0.75 0.5
37 1 0.6 0.75 0.5
38 1 0.7 0.75 0.5
39 1 0.8 0.75 0.5
40 1 0.9 0.75 0.5
ITEM: TIMESTEP
2600
ITEM: NUMBER OF ATOMS
40
ITEM: BOX BOUNDS pp pp pp
-0.171668 10.1717
-0.0686672 4.06867
-0.0005 0.0005
ITEM: ATOMS id type xs ys zs
1 1 0 1.07337e-16 0.5
2 1 0.1 3.35428e-18 0.5
3 1 0.2 3.35428e-18 0.5
4 1 0.3 3.35428e-18 0.5
5 1 0.4 3.35428e-18 0.5
6 1 0.5 3.35428e-18 0.5
7 1 0.6 1.07337e-16 0.5
8 1 0.7 1.07337e-16 0.5
9 1 0.8 3.35428e-18 0.5
10 1 0.9 3.35428e-18 0.5
11 1 2.68343e-18 0.25 0.5
12 1 0.1 0.25 0.5
13 1 0.2 0.25 0.5
14 1 0.3 0.25 0.5
15 1 0.4 0.25 0.5
16 1 0.5 0.25 0.5
17 1 0.6 0.25 0.5
18 1 0.7 0.25 0.5
19 1 0.8 0.25 0.5
20 1 0.9 0.25 0.5
21 1 2.68343e-18 0.5 0.5
22 1 0.1 0.5 0.5
23 1 0.2 0.5 0.5
24 1 0.3 0.5 0.5
25 1 0.4 0.5 0.5
26 1 0.5 0.5 0.5
27 1 0.6 0.5 0.5
28 1 0.7 0.5 0.5
29 1 0.8 0.5 0.5
30 1 0.9 0.5 0.5
31 1 2.68343e-18 0.75 0.5
32 1 0.1 0.75 0.5
33 1 0.2 0.75 0.5
34 1 0.3 0.75 0.5
35 1 0.4 0.75 0.5
36 1 0.5 0.75 0.5
37 1 0.6 0.75 0.5
38 1 0.7 0.75 0.5
39 1 0.8 0.75 0.5
40 1 0.9 0.75 0.5
ITEM: TIMESTEP
2700
ITEM: NUMBER OF ATOMS
40
ITEM: BOX BOUNDS pp pp pp
-0.185379 10.1854
-0.0741516 4.07415
-0.0005 0.0005
ITEM: ATOMS id type xs ys zs
1 1 0 1.07053e-16 0.5
2 1 0.1 3.34541e-18 0.5
3 1 0.2 3.34541e-18 0.5
4 1 0.3 3.34541e-18 0.5
5 1 0.4 3.34541e-18 0.5
6 1 0.5 3.34541e-18 0.5
7 1 0.6 1.07053e-16 0.5
8 1 0.7 1.07053e-16 0.5
9 1 0.8 3.34541e-18 0.5
10 1 0.9 3.34541e-18 0.5
11 1 2.67633e-18 0.25 0.5
12 1 0.1 0.25 0.5
13 1 0.2 0.25 0.5
14 1 0.3 0.25 0.5
15 1 0.4 0.25 0.5
16 1 0.5 0.25 0.5
17 1 0.6 0.25 0.5
18 1 0.7 0.25 0.5
19 1 0.8 0.25 0.5
20 1 0.9 0.25 0.5
21 1 2.67633e-18 0.5 0.5
22 1 0.1 0.5 0.5
23 1 0.2 0.5 0.5
24 1 0.3 0.5 0.5
25 1 0.4 0.5 0.5
26 1 0.5 0.5 0.5
27 1 0.6 0.5 0.5
28 1 0.7 0.5 0.5
29 1 0.8 0.5 0.5
30 1 0.9 0.5 0.5
31 1 2.67633e-18 0.75 0.5
32 1 0.1 0.75 0.5
33 1 0.2 0.75 0.5
34 1 0.3 0.75 0.5
35 1 0.4 0.75 0.5
36 1 0.5 0.75 0.5
37 1 0.6 0.75 0.5
38 1 0.7 0.75 0.5
39 1 0.8 0.75 0.5
40 1 0.9 0.75 0.5
ITEM: TIMESTEP
2800
ITEM: NUMBER OF ATOMS
40
ITEM: BOX BOUNDS pp pp pp
-0.199644 10.1996
-0.0798576 4.07986
-0.0005 0.0005
ITEM: ATOMS id type xs ys zs
1 1 0 1.0676e-16 0.5
2 1 0.1 3.33624e-18 0.5
3 1 0.2 3.33624e-18 0.5
4 1 0.3 3.33624e-18 0.5
5 1 0.4 3.33624e-18 0.5
6 1 0.5 3.33624e-18 0.5
7 1 0.6 1.0676e-16 0.5
8 1 0.7 1.0676e-16 0.5
9 1 0.8 3.33624e-18 0.5
10 1 0.9 3.33624e-18 0.5
11 1 2.66899e-18 0.25 0.5
12 1 0.1 0.25 0.5
13 1 0.2 0.25 0.5
14 1 0.3 0.25 0.5
15 1 0.4 0.25 0.5
16 1 0.5 0.25 0.5
17 1 0.6 0.25 0.5
18 1 0.7 0.25 0.5
19 1 0.8 0.25 0.5
20 1 0.9 0.25 0.5
21 1 2.66899e-18 0.5 0.5
22 1 0.1 0.5 0.5
23 1 0.2 0.5 0.5
24 1 0.3 0.5 0.5
25 1 0.4 0.5 0.5
26 1 0.5 0.5 0.5
27 1 0.6 0.5 0.5
28 1 0.7 0.5 0.5
29 1 0.8 0.5 0.5
30 1 0.9 0.5 0.5
31 1 2.66899e-18 0.75 0.5
32 1 0.1 0.75 0.5
33 1 0.2 0.75 0.5
34 1 0.3 0.75 0.5
35 1 0.4 0.75 0.5
36 1 0.5 0.75 0.5
37 1 0.6 0.75 0.5
38 1 0.7 0.75 0.5
39 1 0.8 0.75 0.5
40 1 0.9 0.75 0.5
ITEM: TIMESTEP
2900
ITEM: NUMBER OF ATOMS
40
ITEM: BOX BOUNDS pp pp pp
-0.214464 10.2145
-0.0857857 4.08579
-0.0005 0.0005
ITEM: ATOMS id type xs ys zs
1 1 0 1.06456e-16 0.5
2 1 0.1 3.32675e-18 0.5
3 1 0.2 3.32675e-18 0.5
4 1 0.3 3.32675e-18 0.5
5 1 0.4 3.32675e-18 0.5
6 1 0.5 3.32675e-18 0.5
7 1 0.6 1.06456e-16 0.5
8 1 0.7 1.06456e-16 0.5
9 1 0.8 3.32675e-18 0.5
10 1 0.9 3.32675e-18 0.5
11 1 2.6614e-18 0.25 0.5
12 1 0.1 0.25 0.5
13 1 0.2 0.25 0.5
14 1 0.3 0.25 0.5
15 1 0.4 0.25 0.5
16 1 0.5 0.25 0.5
17 1 0.6 0.25 0.5
18 1 0.7 0.25 0.5
19 1 0.8 0.25 0.5
20 1 0.9 0.25 0.5
21 1 2.6614e-18 0.5 0.5
22 1 0.1 0.5 0.5
23 1 0.2 0.5 0.5
24 1 0.3 0.5 0.5
25 1 0.4 0.5 0.5
26 1 0.5 0.5 0.5
27 1 0.6 0.5 0.5
28 1 0.7 0.5 0.5
29 1 0.8 0.5 0.5
30 1 0.9 0.5 0.5
31 1 2.6614e-18 0.75 0.5
32 1 0.1 0.75 0.5
33 1 0.2 0.75 0.5
34 1 0.3 0.75 0.5
35 1 0.4 0.75 0.5
36 1 0.5 0.75 0.5
37 1 0.6 0.75 0.5
38 1 0.7 0.75 0.5
39 1 0.8 0.75 0.5
40 1 0.9 0.75 0.5
ITEM: TIMESTEP
3000
ITEM: NUMBER OF ATOMS
40
ITEM: BOX BOUNDS pp pp pp
-0.229839 10.2298
-0.0919356 4.09194
-0.0005 0.0005
ITEM: ATOMS id type xs ys zs
1 1 0 1.06143e-16 0.5
2 1 0.1 3.31697e-18 0.5
3 1 0.2 3.31697e-18 0.5
4 1 0.3 3.31697e-18 0.5
5 1 0.4 3.31697e-18 0.5
6 1 0.5 3.31697e-18 0.5
7 1 0.6 1.06143e-16 0.5
8 1 0.7 1.06143e-16 0.5
9 1 0.8 3.31697e-18 0.5
10 1 0.9 3.31697e-18 0.5
11 1 2.65358e-18 0.25 0.5
12 1 0.1 0.25 0.5
13 1 0.2 0.25 0.5
14 1 0.3 0.25 0.5
15 1 0.4 0.25 0.5
16 1 0.5 0.25 0.5
17 1 0.6 0.25 0.5
18 1 0.7 0.25 0.5
19 1 0.8 0.25 0.5
20 1 0.9 0.25 0.5
21 1 2.65358e-18 0.5 0.5
22 1 0.1 0.5 0.5
23 1 0.2 0.5 0.5
24 1 0.3 0.5 0.5
25 1 0.4 0.5 0.5
26 1 0.5 0.5 0.5
27 1 0.6 0.5 0.5
28 1 0.7 0.5 0.5
29 1 0.8 0.5 0.5
30 1 0.9 0.5 0.5
31 1 2.65358e-18 0.75 0.5
32 1 0.1 0.75 0.5
33 1 0.2 0.75 0.5
34 1 0.3 0.75 0.5
35 1 0.4 0.75 0.5
36 1 0.5 0.75 0.5
37 1 0.6 0.75 0.5
38 1 0.7 0.75 0.5
39 1 0.8 0.75 0.5
40 1 0.9 0.75 0.5
ITEM: TIMESTEP
3100
ITEM: NUMBER OF ATOMS
40
ITEM: BOX BOUNDS pp pp pp
-0.245766 10.2458
-0.0983065 4.09831
-0.0005 0.0005
ITEM: ATOMS id type xs ys zs
1 1 0 1.05821e-16 0.5
2 1 0.1 3.3069e-18 0.5
3 1 0.2 3.3069e-18 0.5
4 1 0.3 3.3069e-18 0.5
5 1 0.4 3.3069e-18 0.5
6 1 0.5 3.3069e-18 0.5
7 1 0.6 1.05821e-16 0.5
8 1 0.7 1.05821e-16 0.5
9 1 0.8 3.3069e-18 0.5
10 1 0.9 3.3069e-18 0.5
11 1 2.64552e-18 0.25 0.5
12 1 0.1 0.25 0.5
13 1 0.2 0.25 0.5
14 1 0.3 0.25 0.5
15 1 0.4 0.25 0.5
16 1 0.5 0.25 0.5
17 1 0.6 0.25 0.5
18 1 0.7 0.25 0.5
19 1 0.8 0.25 0.5
20 1 0.9 0.25 0.5
21 1 2.64552e-18 0.5 0.5
22 1 0.1 0.5 0.5
23 1 0.2 0.5 0.5
24 1 0.3 0.5 0.5
25 1 0.4 0.5 0.5
26 1 0.5 0.5 0.5
27 1 0.6 0.5 0.5
28 1 0.7 0.5 0.5
29 1 0.8 0.5 0.5
30 1 0.9 0.5 0.5
31 1 2.64552e-18 0.75 0.5
32 1 0.1 0.75 0.5
33 1 0.2 0.75 0.5
34 1 0.3 0.75 0.5
35 1 0.4 0.75 0.5
36 1 0.5 0.75 0.5
37 1 0.6 0.75 0.5
38 1 0.7 0.75 0.5
39 1 0.8 0.75 0.5