ITEM: TIMESTEP
0
ITEM: NUMBER OF ATOMS
25
ITEM: BOX BOUNDS pp pp pp
0 5e-05
0 5e-05
-5e-06 5e-06
ITEM: ATOMS id x y z vx vy vz fx fy fz 
1 0 0 0 -4.70939e-07 -1.13119e-06 0 0 0 0 
2 1e-05 0 0 2.60588e-06 -1.8097e-06 0 0 0 0 
3 2e-05 0 0 -1.26695e-06 1.81585e-06 0 0 0 0 
4 3e-05 0 0 2.18502e-06 3.41805e-06 0 0 0 0 
5 4e-05 0 0 2.27477e-06 -3.73516e-07 0 0 0 0 
6 0 1e-05 0 -2.7781e-06 -2.82152e-06 0 0 0 0 
7 1e-05 1e-05 0 3.30049e-06 1.21883e-06 0 0 0 0 
8 2e-05 1e-05 0 -2.21004e-06 3.35169e-06 0 0 0 0 
9 3e-05 1e-05 0 -3.56765e-06 -2.18733e-06 0 0 0 0 
10 4e-05 1e-05 0 -8.73604e-07 1.21183e-06 0 0 0 0 
11 0 2e-05 0 1.57038e-06 -1.68217e-06 0 0 0 0 
12 1e-05 2e-05 0 1.05033e-06 -5.65897e-07 0 0 0 0 
13 2e-05 2e-05 0 -1.36466e-07 -1.46786e-06 0 0 0 0 
14 3e-05 2e-05 0 1.83302e-06 2.24187e-06 0 0 0 0 
15 4e-05 2e-05 0 -1.83607e-06 1.67368e-06 0 0 0 0 
16 0 3e-05 0 1.95993e-06 -2.69151e-06 0 0 0 0 
17 1e-05 3e-05 0 1.38934e-06 -3.79368e-06 0 0 0 0 
18 2e-05 3e-05 0 -1.00176e-06 1.02759e-06 0 0 0 0 
19 3e-05 3e-05 0 2.22491e-06 9.36949e-07 0 0 0 0 
20 4e-05 3e-05 0 1.63465e-06 1.63296e-06 0 0 0 0 
21 0 4e-05 0 -4.11688e-06 -5.33876e-07 0 0 0 0 
22 1e-05 4e-05 0 -1.88703e-06 3.55969e-07 0 0 0 0 
23 2e-05 4e-05 0 -3.33819e-07 -7.15383e-07 0 0 0 0 
24 3e-05 4e-05 0 9.30647e-07 -8.99675e-07 0 0 0 0 
25 4e-05 4e-05 0 -2.48008e-06 1.78805e-06 0 0 0 0 
ITEM: TIMESTEP
1
ITEM: NUMBER OF ATOMS
25
ITEM: BOX BOUNDS pp pp pp
0 5e-05
0 5e-05
-5e-06 5e-06
ITEM: ATOMS id x y z vx vy vz fx fy fz 
1 -4.70939e-10 -1.13119e-09 0 -4.70939e-07 -1.13119e-06 0 0 0 0 
2 1.00026e-05 -1.8097e-09 0 2.60588e-06 -1.8097e-06 0 0 0 0 
3 1.99987e-05 1.81585e-09 0 -1.26695e-06 1.81585e-06 0 0 0 0 
4 3.00022e-05 3.41805e-09 0 2.18502e-06 3.41805e-06 0 0 0 0 
5 4.00023e-05 -3.73516e-10 0 2.27477e-06 -3.73516e-07 0 0 0 0 
6 -2.7781e-09 9.99718e-06 0 -2.7781e-06 -2.82152e-06 0 0 0 0 
7 1.00033e-05 1.00012e-05 0 3.30049e-06 1.21883e-06 0 0 0 0 
8 1.99978e-05 1.00034e-05 0 -2.21004e-06 3.35169e-06 0 0 0 0 
9 2.99964e-05 9.99781e-06 0 -3.56765e-06 -2.18733e-06 0 0 0 0 
10 3.99991e-05 1.00012e-05 0 -8.73604e-07 1.21183e-06 0 0 0 0 
11 1.57038e-09 1.99983e-05 0 1.57038e-06 -1.68217e-06 0 0 0 0 
12 1.00011e-05 1.99994e-05 0 1.05033e-06 -5.65897e-07 0 0 0 0 
13 1.99999e-05 1.99985e-05 0 -1.36466e-07 -1.46786e-06 0 0 0 0 
14 3.00018e-05 2.00022e-05 0 1.83302e-06 2.24187e-06 0 0 0 0 
15 3.99982e-05 2.00017e-05 0 -1.83607e-06 1.67368e-06 0 0 0 0 
16 1.95993e-09 2.99973e-05 0 1.95993e-06 -2.69151e-06 0 0 0 0 
17 1.00014e-05 2.99962e-05 0 1.38934e-06 -3.79368e-06 0 0 0 0 
18 1.9999e-05 3.0001e-05 0 -1.00176e-06 1.02759e-06 0 0 0 0 
19 3.00022e-05 3.00009e-05 0 2.22491e-06 9.36949e-07 0 0 0 0 
20 4.00016e-05 3.00016e-05 0 1.63465e-06 1.63296e-06 0 0 0 0 
21 -4.11688e-09 3.99995e-05 0 -4.11688e-06 -5.33876e-07 0 0 0 0 
22 9.99811e-06 4.00004e-05 0 -1.88703e-06 3.55969e-07 0 0 0 0 
23 1.99997e-05 3.99993e-05 0 -3.33819e-07 -7.15383e-07 0 0 0 0 
24 3.00009e-05 3.99991e-05 0 9.30647e-07 -8.99675e-07 0 0 0 0 
25 3.99975e-05 4.00018e-05 0 -2.48008e-06 1.78805e-06 0 0 0 0 
ITEM: TIMESTEP
2
ITEM: NUMBER OF ATOMS
25
ITEM: BOX BOUNDS pp pp pp
0 5e-05
0 5e-05
-5e-06 5e-06
ITEM: ATOMS id x y z vx vy vz fx fy fz 
1 -9.41878e-10 -2.26239e-09 0 -4.70939e-07 -1.13119e-06 0 0 0 0 
2 1.00052e-05 -3.6194e-09 0 2.60588e-06 -1.8097e-06 0 0 0 0 
3 1.99975e-05 3.63169e-09 0 -1.26695e-06 1.81585e-06 0 0 0 0 
4 3.00044e-05 6.8361e-09 0 2.18502e-06 3.41805e-06 0 0 0 0 
5 4.00045e-05 -7.47032e-10 0 2.27477e-06 -3.73516e-07 0 0 0 0 
6 -5.5562e-09 9.99436e-06 0 -2.7781e-06 -2.82152e-06 0 0 0 0 
7 1.00066e-05 1.00024e-05 0 3.30049e-06 1.21883e-06 0 0 0 0 
8 1.99956e-05 1.00067e-05 0 -2.21004e-06 3.35169e-06 0 0 0 0 
9 2.99929e-05 9.99563e-06 0 -3.56765e-06 -2.18733e-06 0 0 0 0 
10 3.99983e-05 1.00024e-05 0 -8.73604e-07 1.21183e-06 0 0 0 0 
11 3.14075e-09 1.99966e-05 0 1.57038e-06 -1.68217e-06 0 0 0 0 
12 1.00021e-05 1.99989e-05 0 1.05033e-06 -5.65897e-07 0 0 0 0 
13 1.99997e-05 1.99971e-05 0 -1.36466e-07 -1.46786e-06 0 0 0 0 
14 3.00037e-05 2.00045e-05 0 1.83302e-06 2.24187e-06 0 0 0 0 
15 3.99963e-05 2.00033e-05 0 -1.83607e-06 1.67368e-06 0 0 0 0 
16 3.91986e-09 2.99946e-05 0 1.95993e-06 -2.69151e-06 0 0 0 0 
17 1.00028e-05 2.99924e-05 0 1.38934e-06 -3.79368e-06 0 0 0 0 
18 1.9998e-05 3.00021e-05 0 -1.00176e-06 1.02759e-06 0 0 0 0 
19 3.00044e-05 3.00019e-05 0 2.22491e-06 9.36949e-07 0 0 0 0 
20 4.00033e-05 3.00033e-05 0 1.63465e-06 1.63296e-06 0 0 0 0 
21 -8.23375e-09 3.99989e-05 0 -4.11688e-06 -5.33876e-07 0 0 0 0 
22 9.99623e-06 4.00007e-05 0 -1.88703e-06 3.55969e-07 0 0 0 0 
23 1.99993e-05 3.99986e-05 0 -3.33819e-07 -7.15383e-07 0 0 0 0 
24 3.00019e-05 3.99982e-05 0 9.30647e-07 -8.99675e-07 0 0 0 0 
25 3.9995e-05 4.00036e-05 0 -2.48008e-06 1.78805e-06 0 0 0 0 
ITEM: TIMESTEP
3
ITEM: NUMBER OF ATOMS
25
ITEM: BOX BOUNDS pp pp pp
0 5e-05
0 5e-05
-5e-06 5e-06
ITEM: ATOMS id x y z vx vy vz fx fy fz 
1 -1.41282e-09 -3.39358e-09 0 -4.70939e-07 -1.13119e-06 0 0 0 0 
2 1.00078e-05 -5.4291e-09 0 2.60588e-06 -1.8097e-06 0 0 0 0 
3 1.99962e-05 5.44754e-09 0 -1.26695e-06 1.81585e-06 0 0 0 0 
4 3.00066e-05 1.02541e-08 0 2.18502e-06 3.41805e-06 0 0 0 0 
5 4.00068e-05 -1.12055e-09 0 2.27477e-06 -3.73516e-07 0 0 0 0 
6 -8.33429e-09 9.99154e-06 0 -2.7781e-06 -2.82152e-06 0 0 0 0 
7 1.00099e-05 1.00037e-05 0 3.30049e-06 1.21883e-06 0 0 0 0 
8 1.99934e-05 1.00101e-05 0 -2.21004e-06 3.35169e-06 0 0 0 0 
9 2.99893e-05 9.99344e-06 0 -3.56765e-06 -2.18733e-06 0 0 0 0 
10 3.99974e-05 1.00036e-05 0 -8.73604e-07 1.21183e-06 0 0 0 0 
11 4.71113e-09 1.9995e-05 0 1.57038e-06 -1.68217e-06 0 0 0 0 
12 1.00032e-05 1.99983e-05 0 1.05033e-06 -5.65897e-07 0 0 0 0 
13 1.99996e-05 1.99956e-05 0 -1.36466e-07 -1.46786e-06 0 0 0 0 
14 3.00055e-05 2.00067e-05 0 1.83302e-06 2.24187e-06 0 0 0 0 
15 3.99945e-05 2.0005e-05 0 -1.83607e-06 1.67368e-06 0 0 0 0 
16 5.87979e-09 2.99919e-05 0 1.95993e-06 -2.69151e-06 0 0 0 0 
17 1.00042e-05 2.99886e-05 0 1.38934e-06 -3.79368e-06 0 0 0 0 
18 1.9997e-05 3.00031e-05 0 -1.00176e-06 1.02759e-06 0 0 0 0 
19 3.00067e-05 3.00028e-05 0 2.22491e-06 9.36949e-07 0 0 0 0 
20 4.00049e-05 3.00049e-05 0 1.63465e-06 1.63296e-06 0 0 0 0 
21 -1.23506e-08 3.99984e-05 0 -4.11688e-06 -5.33876e-07 0 0 0 0 
22 9.99434e-06 4.00011e-05 0 -1.88703e-06 3.55969e-07 0 0 0 0 
23 1.9999e-05 3.99979e-05 0 -3.33819e-07 -7.15383e-07 0 0 0 0 
24 3.00028e-05 3.99973e-05 0 9.30647e-07 -8.99675e-07 0 0 0 0 
25 3.99926e-05 4.00054e-05 0 -2.48008e-06 1.78805e-06 0 0 0 0 
ITEM: TIMESTEP
4
ITEM: NUMBER OF ATOMS
25
ITEM: BOX BOUNDS pp pp pp
0 5e-05
0 5e-05
-5e-06 5e-06
ITEM: ATOMS id x y z vx vy vz fx fy fz 
1 -1.88376e-09 -4.52477e-09 0 -4.70939e-07 -1.13119e-06 0 0 0 0 
2 1.00104e-05 -7.23881e-09 0 2.60588e-06 -1.8097e-06 0 0 0 0 
3 1.99949e-05 7.26338e-09 0 -1.26695e-06 1.81585e-06 0 0 0 0 
4 3.00087e-05 1.36722e-08 0 2.18502e-06 3.41805e-06 0 0 0 0 
5 4.00091e-05 -1.49406e-09 0 2.27477e-06 -3.73516e-07 0 0 0 0 
6 -1.11124e-08 9.98871e-06 0 -2.7781e-06 -2.82152e-06 0 0 0 0 
7 1.00132e-05 1.00049e-05 0 3.30049e-06 1.21883e-06 0 0 0 0 
8 1.99912e-05 1.00134e-05 0 -2.21004e-06 3.35169e-06 0 0 0 0 
9 2.99857e-05 9.99125e-06 0 -3.56765e-06 -2.18733e-06 0 0 0 0 
10 3.99965e-05 1.00048e-05 0 -8.73604e-07 1.21183e-06 0 0 0 0 
11 6.28151e-09 1.99933e-05 0 1.57038e-06 -1.68217e-06 0 0 0 0 
12 1.00042e-05 1.99977e-05 0 1.05033e-06 -5.65897e-07 0 0 0 0 
13 1.99995e-05 1.99941e-05 0 -1.36466e-07 -1.46786e-06 0 0 0 0 
14 3.00073e-05 2.0009e-05 0 1.83302e-06 2.24187e-06 0 0 0 0 
15 3.99927e-05 2.00067e-05 0 -1.83607e-06 1.67368e-06 0 0 0 0 
16 7.83972e-09 2.99892e-05 0 1.95993e-06 -2.69151e-06 0 0 0 0 
17 1.00056e-05 2.99848e-05 0 1.38934e-06 -3.79368e-06 0 0 0 0 
18 1.9996e-05 3.00041e-05 0 -1.00176e-06 1.02759e-06 0 0 0 0 
19 3.00089e-05 3.00037e-05 0 2.22491e-06 9.36949e-07 0 0 0 0 
20 4.00065e-05 3.00065e-05 0 1.63465e-06 1.63296e-06 0 0 0 0 
21 -1.64675e-08 3.99979e-05 0 -4.11688e-06 -5.33876e-07 0 0 0 0 
22 9.99245e-06 4.00014e-05 0 -1.88703e-06 3.55969e-07 0 0 0 0 
23 1.99987e-05 3.99971e-05 0 -3.33819e-07 -7.15383e-07 0 0 0 0 
24 3.00037e-05 3.99964e-05 0 9.30647e-07 -8.99675e-07 0 0 0 0 
25 3.99901e-05 4.00072e-05 0 -2.48008e-06 1.78805e-06 0 0 0 0 
ITEM: TIMESTEP
5
ITEM: NUMBER OF ATOMS
25
ITEM: BOX BOUNDS pp pp pp
0 5e-05
0 5e-05
-5e-06 5e-06
ITEM: ATOMS id x y z vx vy vz fx fy fz 
1 -2.3547e-09 -5.65597e-09 0 -4.70939e-07 -1.13119e-06 0 0 0 0 
2 1.0013e-05 -9.04851e-09 0 2.60588e-06 -1.8097e-06 0 0 0 0 
3 1.99937e-05 9.07923e-09 0 -1.26695e-06 1.81585e-06 0 0 0 0 
4 3.00109e-05 1.70902e-08 0 2.18502e-06 3.41805e-06 0 0 0 0 
5 4.00114e-05 -1.86758e-09 0 2.27477e-06 -3.73516e-07 0 0 0 0 
6 -1.38905e-08 9.98589e-06 0 -2.7781e-06 -2.82152e-06 0 0 0 0 
7 1.00165e-05 1.00061e-05 0 3.30049e-06 1.21883e-06 0 0 0 0 
8 1.99889e-05 1.00168e-05 0 -2.21004e-06 3.35169e-06 0 0 0 0 
9 2.99822e-05 9.98906e-06 0 -3.56765e-06 -2.18733e-06 0 0 0 0 
10 3.99956e-05 1.00061e-05 0 -8.73604e-07 1.21183e-06 0 0 0 0 
11 7.85188e-09 1.99916e-05 0 1.57038e-06 -1.68217e-06 0 0 0 0 
12 1.00053e-05 1.99972e-05 0 1.05033e-06 -5.65897e-07 0 0 0 0 
13 1.99993e-05 1.99927e-05 0 -1.36466e-07 -1.46786e-06 0 0 0 0 
14 3.00092e-05 2.00112e-05 0 1.83302e-06 2.24187e-06 0 0 0 0 
15 3.99908e-05 2.00084e-05 0 -1.83607e-06 1.67368e-06 0 0 0 0 
16 9.79965e-09 2.99865e-05 0 1.95993e-06 -2.69151e-06 0 0 0 0 
17 1.00069e-05 2.9981e-05 0 1.38934e-06 -3.79368e-06 0 0 0 0 
18 1.9995e-05 3.00051e-05 0 -1.00176e-06 1.02759e-06 0 0 0 0 
19 3.00111e-05 3.00047e-05 0 2.22491e-06 9.36949e-07 0 0 0 0 
20 4.00082e-05 3.00082e-05 0 1.63465e-06 1.63296e-06 0 0 0 0 
21 -2.05844e-08 3.99973e-05 0 -4.11688e-06 -5.33876e-07 0 0 0 0 
22 9.99056e-06 4.00018e-05 0 -1.88703e-06 3.55969e-07 0 0 0 0 
23 1.99983e-05 3.99964e-05 0 -3.33819e-07 -7.15383e-07 0 0 0 0 
24 3.00047e-05 3.99955e-05 0 9.30647e-07 -8.99675e-07 0 0 0 0 
25 3.99876e-05 4.00089e-05 0 -2.48008e-06 1.78805e-06 0 0 0 0 
ITEM: TIMESTEP
6
ITEM: NUMBER OF ATOMS
25
ITEM: BOX BOUNDS pp pp pp
0 5e-05
0 5e-05
-5e-06 5e-06
ITEM: ATOMS id x y z vx vy vz fx fy fz 
1 -2.82563e-09 -6.78716e-09 0 -4.70939e-07 -1.13119e-06 0 0 0 0 
2 1.00156e-05 -1.08582e-08 0 2.60588e-06 -1.8097e-06 0 0 0 0 
3 1.99924e-05 1.08951e-08 0 -1.26695e-06 1.81585e-06 0 0 0 0 
4 3.00131e-05 2.05083e-08 0 2.18502e-06 3.41805e-06 0 0 0 0 
5 4.00136e-05 -2.2411e-09 0 2.27477e-06 -3.73516e-07 0 0 0 0 
6 -1.66686e-08 9.98307e-06 0 -2.7781e-06 -2.82152e-06 0 0 0 0 
7 1.00198e-05 1.00073e-05 0 3.30049e-06 1.21883e-06 0 0 0 0 
8 1.99867e-05 1.00201e-05 0 -2.21004e-06 3.35169e-06 0 0 0 0 
9 2.99786e-05 9.98688e-06 0 -3.56765e-06 -2.18733e-06 0 0 0 0 
10 3.99948e-05 1.00073e-05 0 -8.73604e-07 1.21183e-06 0 0 0 0 
11 9.42226e-09 1.99899e-05 0 1.57038e-06 -1.68217e-06 0 0 0 0 
12 1.00063e-05 1.99966e-05 0 1.05033e-06 -5.65897e-07 0 0 0 0 
13 1.99992e-05 1.99912e-05 0 -1.36466e-07 -1.46786e-06 0 0 0 0 
14 3.0011e-05 2.00135e-05 0 1.83302e-06 2.24187e-06 0 0 0 0 
15 3.9989e-05 2.001e-05 0 -1.83607e-06 1.67368e-06 0 0 0 0 
16 1.17596e-08 2.99839e-05 0 1.95993e-06 -2.69151e-06 0 0 0 0 
17 1.00083e-05 2.99772e-05 0 1.38934e-06 -3.79368e-06 0 0 0 0 
18 1.9994e-05 3.00062e-05 0 -1.00176e-06 1.02759e-06 0 0 0 0 
19 3.00133e-05 3.00056e-05 0 2.22491e-06 9.36949e-07 0 0 0 0 
20 4.00098e-05 3.00098e-05 0 1.63465e-06 1.63296e-06 0 0 0 0 
21 -2.47013e-08 3.99968e-05 0 -4.11688e-06 -5.33876e-07 0 0 0 0 
22 9.98868e-06 4.00021e-05 0 -1.88703e-06 3.55969e-07 0 0 0 0 
23 1.9998e-05 3.99957e-05 0 -3.33819e-07 -7.15383e-07 0 0 0 0 
24 3.00056e-05 3.99946e-05 0 9.30647e-07 -8.99675e-07 0 0 0 0 
25 3.99851e-05 4.00107e-05 0 -2.48008e-06 1.78805e-06 0 0 0 0 
ITEM: TIMESTEP
7
ITEM: NUMBER OF ATOMS
25
ITEM: BOX BOUNDS pp pp pp
0 5e-05
0 5e-05
-5e-06 5e-06
ITEM: ATOMS id x y z vx vy vz fx fy fz 
1 -3.29657e-09 -7.91835e-09 0 -4.70939e-07 -1.13119e-06 0 0 0 0 
2 1.00182e-05 -1.26679e-08 0 2.60588e-06 -1.8097e-06 0 0 0 0 
3 1.99911e-05 1.27109e-08 0 -1.26695e-06 1.81585e-06 0 0 0 0 
4 3.00153e-05 2.39263e-08 0 2.18502e-06 3.41805e-06 0 0 0 0 
5 4.00159e-05 -2.61461e-09 0 2.27477e-06 -3.73516e-07 0 0 0 0 
6 -1.94467e-08 9.98025e-06 0 -2.7781e-06 -2.82152e-06 0 0 0 0 
7 1.00231e-05 1.00085e-05 0 3.30049e-06 1.21883e-06 0 0 0 0 
8 1.99845e-05 1.00235e-05 0 -2.21004e-06 3.35169e-06 0 0 0 0 
9 2.9975e-05 9.98469e-06 0 -3.56765e-06 -2.18733e-06 0 0 0 0 
10 3.99939e-05 1.00085e-05 0 -8.73604e-07 1.21183e-06 0 0 0 0 
11 1.09926e-08 1.99882e-05 0 1.57038e-06 -1.68217e-06 0 0 0 0 
12 1.00074e-05 1.9996e-05 0 1.05033e-06 -5.65897e-07 0 0 0 0 
13 1.9999e-05 1.99897e-05 0 -1.36466e-07 -1.46786e-06 0 0 0 0 
14 3.00128e-05 2.00157e-05 0 1.83302e-06 2.24187e-06 0 0 0 0 
15 3.99871e-05 2.00117e-05 0 -1.83607e-06 1.67368e-06 0 0 0 0 
16 1.37195e-08 2.99812e-05 0 1.95993e-06 -2.69151e-06 0 0 0 0 
17 1.00097e-05 2.99734e-05 0 1.38934e-06 -3.79368e-06 0 0 0 0 
18 1.9993e-05 3.00072e-05 0 -1.00176e-06 1.02759e-06 0 0 0 0 
19 3.00156e-05 3.00066e-05 0 2.22491e-06 9.36949e-07 0 0 0 0 
20 4.00114e-05 3.00114e-05 0 1.63465e-06 1.63296e-06 0 0 0 0 
21 -2.88181e-08 3.99963e-05 0 -4.11688e-06 -5.33876e-07 0 0 0 0 
22 9.98679e-06 4.00025e-05 0 -1.88703e-06 3.55969e-07 0 0 0 0 
23 1.99977e-05 3.9995e-05 0 -3.33819e-07 -7.15383e-07 0 0 0 0 
24 3.00065e-05 3.99937e-05 0 9.30647e-07 -8.99675e-07 0 0 0 0 
25 3.99826e-05 4.00125e-05 0 -2.48008e-06 1.78805e-06 0 0 0 0 
ITEM: TIMESTEP
8
ITEM: NUMBER OF ATOMS
25
ITEM: BOX BOUNDS pp pp pp
0 5e-05
0 5e-05
-5e-06 5e-06
ITEM: ATOMS id x y z vx vy vz fx fy fz 
1 -3.76751e-09 -9.04955e-09 0 -4.70939e-07 -1.13119e-06 0 0 0 0 
2 1.00208e-05 -1.44776e-08 0 2.60588e-06 -1.8097e-06 0 0 0 0 
3 1.99899e-05 1.45268e-08 0 -1.26695e-06 1.81585e-06 0 0 0 0 
4 3.00175e-05 2.73444e-08 0 2.18502e-06 3.41805e-06 0 0 0 0 
5 4.00182e-05 -2.98813e-09 0 2.27477e-06 -3.73516e-07 0 0 0 0 
6 -2.22248e-08 9.97743e-06 0 -2.7781e-06 -2.82152e-06 0 0 0 0 
7 1.00264e-05 1.00098e-05 0 3.30049e-06 1.21883e-06 0 0 0 0 
8 1.99823e-05 1.00268e-05 0 -2.21004e-06 3.35169e-06 0 0 0 0 
9 2.99715e-05 9.9825e-06 0 -3.56765e-06 -2.18733e-06 0 0 0 0 
10 3.9993e-05 1.00097e-05 0 -8.73604e-07 1.21183e-06 0 0 0 0 
11 1.2563e-08 1.99865e-05 0 1.57038e-06 -1.68217e-06 0 0 0 0 
12 1.00084e-05 1.99955e-05 0 1.05033e-06 -5.65897e-07 0 0 0 0 
13 1.99989e-05 1.99883e-05 0 -1.36466e-07 -1.46786e-06 0 0 0 0 
14 3.00147e-05 2.00179e-05 0 1.83302e-06 2.24187e-06 0 0 0 0 
15 3.99853e-05 2.00134e-05 0 -1.83607e-06 1.67368e-06 0 0 0 0 
16 1.56794e-08 2.99785e-05 0 1.95993e-06 -2.69151e-06 0 0 0 0 
17 1.00111e-05 2.99697e-05 0 1.38934e-06 -3.79368e-06 0 0 0 0 
18 1.9992e-05 3.00082e-05 0 -1.00176e-06 1.02759e-06 0 0 0 0 
19 3.00178e-05 3.00075e-05 0 2.22491e-06 9.36949e-07 0 0 0 0 
20 4.00131e-05 3.00131e-05 0 1.63465e-06 1.63296e-06 0 0 0 0 
21 -3.2935e-08 3.99957e-05 0 -4.11688e-06 -5.33876e-07 0 0 0 0 
22 9.9849e-06 4.00028e-05 0 -1.88703e-06 3.55969e-07 0 0 0 0 
23 1.99973e-05 3.99943e-05 0 -3.33819e-07 -7.15383e-07 0 0 0 0 
24 3.00074e-05 3.99928e-05 0 9.30647e-07 -8.99675e-07 0 0 0 0 
25 3.99802e-05 4.00143e-05 0 -2.48008e-06 1.78805e-06 0 0 0 0 
ITEM: TIMESTEP
9
ITEM: NUMBER OF ATOMS
25
ITEM: BOX BOUNDS pp pp pp
0 5e-05
0 5e-05
-5e-06 5e-06
ITEM: ATOMS id x y z vx vy vz fx fy fz 
1 -4.23845e-09 -1.01807e-08 0 -4.70939e-07 -1.13119e-06 0 0 0 0 
2 1.00235e-05 -1.62873e-08 0 2.60588e-06 -1.8097e-06 0 0 0 0 
3 1.99886e-05 1.63426e-08 0 -1.26695e-06 1.81585e-06 0 0 0 0 
4 3.00197e-05 3.07624e-08 0 2.18502e-06 3.41805e-06 0 0 0 0 
5 4.00205e-05 -3.36164e-09 0 2.27477e-06 -3.73516e-07 0 0 0 0 
6 -2.50029e-08 9.97461e-06 0 -2.7781e-06 -2.82152e-06 0 0 0 0 
7 1.00297e-05 1.0011e-05 0 3.30049e-06 1.21883e-06 0 0 0 0 
8 1.99801e-05 1.00302e-05 0 -2.21004e-06 3.35169e-06 0 0 0 0 
9 2.99679e-05 9.98031e-06 0 -3.56765e-06 -2.18733e-06 0 0 0 0 
10 3.99921e-05 1.00109e-05 0 -8.73604e-07 1.21183e-06 0 0 0 0 
11 1.41334e-08 1.99849e-05 0 1.57038e-06 -1.68217e-06 0 0 0 0 
12 1.00095e-05 1.99949e-05 0 1.05033e-06 -5.65897e-07 0 0 0 0 
13 1.99988e-05 1.99868e-05 0 -1.36466e-07 -1.46786e-06 0 0 0 0 
14 3.00165e-05 2.00202e-05 0 1.83302e-06 2.24187e-06 0 0 0 0 
15 3.99835e-05 2.00151e-05 0 -1.83607e-06 1.67368e-06 0 0 0 0 
16 1.76394e-08 2.99758e-05 0 1.95993e-06 -2.69151e-06 0 0 0 0 
17 1.00125e-05 2.99659e-05 0 1.38934e-06 -3.79368e-06 0 0 0 0 
18 1.9991e-05 3.00092e-05 0 -1.00176e-06 1.02759e-06 0 0 0 0 
19 3.002e-05 3.00084e-05 0 2.22491e-06 9.36949e-07 0 0 0 0 
20 4.00147e-05 3.00147e-05 0 1.63465e-06 1.63296e-06 0 0 0 0 
21 -3.70519e-08 3.99952e-05 0 -4.11688e-06 -5.33876e-07 0 0 0 0 
22 9.98302e-06 4.00032e-05 0 -1.88703e-06 3.55969e-07 0 0 0 0 
23 1.9997e-05 3.99936e-05 0 -3.33819e-07 -7.15383e-07 0 0 0 0 
24 3.00084e-05 3.99919e-05 0 9.30647e-07 -8.99675e-07 0 0 0 0 
25 3.99777e-05 4.00161e-05 0 -2.48008e-06 1.78805e-06 0 0 0 0 
ITEM: TIMESTEP
10
ITEM: NUMBER OF ATOMS
25
ITEM: BOX BOUNDS pp pp pp
0 5e-05
0 5e-05
-5e-06 5e-06
ITEM: ATOMS id x y z vx vy vz fx fy fz 
1 -4.70939e-09 -1.13119e-08 0 -4.70939e-07 -1.13119e-06 0 0 0 0 
2 1.00261e-05 -1.8097e-08 0 2.60588e-06 -1.8097e-06 0 0 0 0 
3 1.99873e-05 1.81585e-08 0 -1.26695e-06 1.81585e-06 0 0 0 0 
4 3.00219e-05 3.41805e-08 0 2.18502e-06 3.41805e-06 0 0 0 0 
5 4.00227e-05 -3.73516e-09 0 2.27477e-06 -3.73516e-07 0 0 0 0 
6 -2.7781e-08 9.97178e-06 0 -2.7781e-06 -2.82152e-06 0 0 0 0 
7 1.0033e-05 1.00122e-05 0 3.30049e-06 1.21883e-06 0 0 0 0 
8 1.99779e-05 1.00335e-05 0 -2.21004e-06 3.35169e-06 0 0 0 0 
9 2.99643e-05 9.97813e-06 0 -3.56765e-06 -2.18733e-06 0 0 0 0 
10 3.99913e-05 1.00121e-05 0 -8.73604e-07 1.21183e-06 0 0 0 0 
11 1.57038e-08 1.99832e-05 0 1.57038e-06 -1.68217e-06 0 0 0 0 
12 1.00105e-05 1.99943e-05 0 1.05033e-06 -5.65897e-07 0 0 0 0 
13 1.99986e-05 1.99853e-05 0 -1.36466e-07 -1.46786e-06 0 0 0 0 
14 3.00183e-05 2.00224e-05 0 1.83302e-06 2.24187e-06 0 0 0 0 
15 3.99816e-05 2.00167e-05 0 -1.83607e-06 1.67368e-06 0 0 0 0 
16 1.95993e-08 2.99731e-05 0 1.95993e-06 -2.69151e-06 0 0 0 0 
17 1.00139e-05 2.99621e-05 0 1.38934e-06 -3.79368e-06 0 0 0 0 
18 1.999e-05 3.00103e-05 0 -1.00176e-06 1.02759e-06 0 0 0 0 
19 3.00222e-05 3.00094e-05 0 2.22491e-06 9.36949e-07 0 0 0 0 
20 4.00163e-05 3.00163e-05 0 1.63465e-06 1.63296e-06 0 0 0 0 
21 -4.11688e-08 3.99947e-05 0 -4.11688e-06 -5.33876e-07 0 0 0 0 
22 9.98113e-06 4.00036e-05 0 -1.88703e-06 3.55969e-07 0 0 0 0 
23 1.99967e-05 3.99928e-05 0 -3.33819e-07 -7.15383e-07 0 0 0 0 
24 3.00093e-05 3.9991e-05 0 9.30647e-07 -8.99675e-07 0 0 0 0 
25 3.99752e-05 4.00179e-05 0 -2.48008e-06 1.78805e-06 0 0 0 0 
ITEM: TIMESTEP
11
ITEM: NUMBER OF ATOMS
25
ITEM: BOX BOUNDS pp pp pp
0 5e-05
0 5e-05
-5e-06 5e-06
ITEM: ATOMS id x y z vx vy vz fx fy fz 
1 -5.18033e-09 -1.24431e-08 0 -4.70939e-07 -1.13119e-06 0 0 0 0 
2 1.00287e-05 -1.99067e-08 0 2.60588e-06 -1.8097e-06 0 0 0 0 
3 1.99861e-05 1.99743e-08 0 -1.26695e-06 1.81585e-06 0 0 0 0 
4 3.0024e-05 3.75985e-08 0 2.18502e-06 3.41805e-06 0 0 0 0 
5 4.0025e-05 -4.10868e-09 0 2.27477e-06 -3.73516e-07 0 0 0 0 
6 -3.05591e-08 9.96896e-06 0 -2.7781e-06 -2.82152e-06 0 0 0 0 
7 1.00363e-05 1.00134e-05 0 3.30049e-06 1.21883e-06 0 0 0 0 
8 1.99757e-05 1.00369e-05 0 -2.21004e-06 3.35169e-06 0 0 0 0 
9 2.99608e-05 9.97594e-06 0 -3.56765e-06 -2.18733e-06 0 0 0 0 
10 3.99904e-05 1.00133e-05 0 -8.73604e-07 1.21183e-06 0 0 0 0 
11 1.72741e-08 1.99815e-05 0 1.57038e-06 -1.68217e-06 0 0 0 0 
12 1.00116e-05 1.99938e-05 0 1.05033e-06 -5.65897e-07 0 0 0 0 
13 1.99985e-05 1.99839e-05 0 -1.36466e-07 -1.46786e-06 0 0 0 0 
14 3.00202e-05 2.00247e-05 0 1.83302e-06 2.24187e-06 0 0 0 0 
15 3.99798e-05 2.00184e-05 0 -1.83607e-06 1.67368e-06 0 0 0 0 
16 2.15592e-08 2.99704e-05 0 1.95993e-06 -2.69151e-06 0 0 0 0 
17 1.00153e-05 2.99583e-05 0 1.38934e-06 -3.79368e-06 0 0 0 0 
18 1.9989e-05 3.00113e-05 0 -1.00176e-06 1.02759e-06 0 0 0 0 
19 3.00245e-05 3.00103e-05 0 2.22491e-06 9.36949e-07 0 0 0 0 
20 4.0018e-05 3.0018e-05 0 1.63465e-06 1.63296e-06 0 0 0 0 
21 -4.52856e-08 3.99941e-05 0 -4.11688e-06 -5.33876e-07 0 0 0 0 
22 9.97924e-06 4.00039e-05 0 -1.88703e-06 3.55969e-07 0 0 0 0 
23 1.99963e-05 3.99921e-05 0 -3.33819e-07 -7.15383e-07 0 0 0 0 
24 3.00102e-05 3.99901e-05 0 9.30647e-07 -8.99675e-07 0 0 0 0 
25 3.99727e-05 4.00197e-05 0 -2.48008e-06 1.78805e-06 0 0 0 0 
ITEM: TIMESTEP
12
ITEM: NUMBER OF ATOMS
25
ITEM: BOX BOUNDS pp pp pp
0 5e-05
0 5e-05
-5e-06 5e-06
ITEM: ATOMS id x y z vx vy vz fx fy fz 
1 -5.65127e-09 -1.35743e-08 0 -4.70939e-07 -1.13119e-06 0 0 0 0 
2 1.00313e-05 -2.17164e-08 0 2.60588e-06 -1.8097e-06 0 0 0 0 
3 1.99848e-05 2.17902e-08 0 -1.26695e-06 1.81585e-06 0 0 0 0 
4 3.00262e-05 4.10166e-08 0 2.18502e-06 3.41805e-06 0 0 0 0 
5 4.00273e-05 -4.48219e-09 0 2.27477e-06 -3.73516e-07 0 0 0 0 
6 -3.33372e-08 9.96614e-06 0 -2.7781e-06 -2.82152e-06 0 0 0 0 
7 1.00396e-05 1.00146e-05 0 3.30049e-06 1.21883e-06 0 0 0 0 
8 1.99735e-05 1.00402e-05 0 -2.21004e-06 3.35169e-06 0 0 0 0 
9 2.99572e-05 9.97375e-06 0 -3.56765e-06 -2.18733e-06 0 0 0 0 
10 3.99895e-05 1.00145e-05 0 -8.73604e-07 1.21183e-06 0 0 0 0 
11 1.88445e-08 1.99798e-05 0 1.57038e-06 -1.68217e-06 0 0 0 0 
12 1.00126e-05 1.99932e-05 0 1.05033e-06 -5.65897e-07 0 0 0 0 
13 1.99984e-05 1.99824e-05 0 -1.36466e-07 -1.46786e-06 0 0 0 0 
14 3.0022e-05 2.00269e-05 0 1.83302e-06 2.24187e-06 0 0 0 0 
15 3.9978e-05 2.00201e-05 0 -1.83607e-06 1.67368e-06 0 0 0 0 
16 2.35192e-08 2.99677e-05 0 1.95993e-06 -2.69151e-06 0 0 0 0 
17 1.00167e-05 2.99545e-05 0 1.38934e-06 -3.79368e-06 0 0 0 0 
18 1.9988e-05 3.00123e-05 0 -1.00176e-06 1.02759e-06 0 0 0 0 
19 3.00267e-05 3.00112e-05 0 2.22491e-06 9.36949e-07 0 0 0 0 
20 4.00196e-05 3.00196e-05 0 1.63465e-06 1.63296e-06 0 0 0 0 
21 -4.94025e-08 3.99936e-05 0 -4.11688e-06 -5.33876e-07 0 0 0 0 
22 9.97736e-06 4.00043e-05 0 -1.88703e-06 3.55969e-07 0 0 0 0 
23 1.9996e-05 3.99914e-05 0 -3.33819e-07 -7.15383e-07 0 0 0 0 
24 3.00112e-05 3.99892e-05 0 9.30647e-07 -8.99675e-07 0 0 0 0 
25 3.99702e-05 4.00215e-05 0 -2.48008e-06 1.78805e-06 0 0 0 0 
ITEM: TIMESTEP
13
ITEM: NUMBER OF ATOMS
25
ITEM: BOX BOUNDS pp pp pp
0 5e-05
0 5e-05
-5e-06 5e-06
ITEM: ATOMS id x y z vx vy vz fx fy fz 
1 -6.12221e-09 -1.47055e-08 0 -4.70939e-07 -1.13119e-06 0 0 0 0 
2 1.00339e-05 -2.35261e-08 0 2.60588e-06 -1.8097e-06 0 0 0 0 
3 1.99835e-05 2.3606e-08 0 -1.26695e-06 1.81585e-06 0 0 0 0 
4 3.00284e-05 4.44346e-08 0 2.18502e-06 3.41805e-06 0 0 0 0 
5 4.00296e-05 -4.85571e-09 0 2.27477e-06 -3.73516e-07 0 0 0 0 
6 -3.61153e-08 9.96332e-06 0 -2.7781e-06 -2.82152e-06 0 0 0 0 
7 1.00429e-05 1.00158e-05 0 3.30049e-06 1.21883e-06 0 0 0 0 
8 1.99713e-05 1.00436e-05 0 -2.21004e-06 3.35169e-06 0 0 0 0 
9 2.99536e-05 9.97156e-06 0 -3.56765e-06 -2.18733e-06 0 0 0 0 
10 3.99886e-05 1.00158e-05 0 -8.73604e-07 1.21183e-06 0 0 0 0 
11 2.04149e-08 1.99781e-05 0 1.57038e-06 -1.68217e-06 0 0 0 0 
12 1.00137e-05 1.99926e-05 0 1.05033e-06 -5.65897e-07 0 0 0 0 
13 1.99982e-05 1.99809e-05 0 -1.36466e-07 -1.46786e-06 0 0 0 0 
14 3.00238e-05 2.00291e-05 0 1.83302e-06 2.24187e-06 0 0 0 0 
15 3.99761e-05 2.00218e-05 0 -1.83607e-06 1.67368e-06 0 0 0 0 
16 2.54791e-08 2.9965e-05 0 1.95993e-06 -2.69151e-06 0 0 0 0 
17 1.00181e-05 2.99507e-05 0 1.38934e-06 -3.79368e-06 0 0 0 0 
18 1.9987e-05 3.00134e-05 0 -1.00176e-06 1.02759e-06 0 0 0 0 
19 3.00289e-05 3.00122e-05 0 2.22491e-06 9.36949e-07 0 0 0 0 
20 4.00213e-05 3.00212e-05 0 1.63465e-06 1.63296e-06 0 0 0 0 
21 -5.35194e-08 3.99931e-05 0 -4.11688e-06 -5.33876e-07 0 0 0 0 
22 9.97547e-06 4.00046e-05 0 -1.88703e-06 3.55969e-07 0 0 0 0 
23 1.99957e-05 3.99907e-05 0 -3.33819e-07 -7.15383e-07 0 0 0 0 
24 3.00121e-05 3.99883e-05 0 9.30647e-07 -8.99675e-07 0 0 0 0 
25 3.99678e-05 4.00232e-05 0 -2.48008e-06 1.78805e-06 0 0 0 0 
ITEM: TIMESTEP
14
ITEM: NUMBER OF ATOMS
25
ITEM: BOX BOUNDS pp pp pp
0 5e-05
0 5e-05
-5e-06 5e-06
ITEM: ATOMS id x y z vx vy vz fx fy fz 
1 -6.59315e-09 -1.58367e-08 0 -4.70939e-07 -1.13119e-06 0 0 0 0 
2 1.00365e-05 -2.53358e-08 0 2.60588e-06 -1.8097e-06 0 0 0 0 
3 1.99823e-05 2.54218e-08 0 -1.26695e-06 1.81585e-06 0 0 0 0 
4 3.00306e-05 4.78527e-08 0 2.18502e-06 3.41805e-06 0 0 0 0 
5 4.00318e-05 -5.22922e-09 0 2.27477e-06 -3.73516e-07 0 0 0 0 
6 -3.88934e-08 9.9605e-06 0 -2.7781e-06 -2.82152e-06 0 0 0 0 
7 1.00462e-05 1.00171e-05 0 3.30049e-06 1.21883e-06 0 0 0 0 
8 1.99691e-05 1.00469e-05 0 -2.21004e-06 3.35169e-06 0 0 0 0 
9 2.99501e-05 9.96938e-06 0 -3.56765e-06 -2.18733e-06 0 0 0 0 
10 3.99878e-05 1.0017e-05 0 -8.73604e-07 1.21183e-06 0 0 0 0 
11 2.19853e-08 1.99764e-05 0 1.57038e-06 -1.68217e-06 0 0 0 0 
12 1.00147e-05 1.99921e-05 0 1.05033e-06 -5.65897e-07 0 0 0 0 
13 1.99981e-05 1.99794e-05 0 -1.36466e-07 -1.46786e-06 0 0 0 0 
14 3.00257e-05 2.00314e-05 0 1.83302e-06 2.24187e-06 0 0 0 0 
15 3.99743e-05 2.00234e-05 0 -1.83607e-06 1.67368e-06 0 0 0 0 
16 2.7439e-08 2.99623e-05 0 1.95993e-06 -2.69151e-06 0 0 0 0 
17 1.00195e-05 2.99469e-05 0 1.38934e-06 -3.79368e-06 0 0 0 0 
18 1.9986e-05 3.00144e-05 0 -1.00176e-06 1.02759e-06 0 0 0 0 
19 3.00311e-05 3.00131e-05 0 2.22491e-06 9.36949e-07 0 0 0 0 
20 4.00229e-05 3.00229e-05 0 1.63465e-06 1.63296e-06 0 0 0 0 
21 -5.76363e-08 3.99925e-05 0 -4.11688e-06 -5.33876e-07 0 0 0 0 
22 9.97358e-06 4.0005e-05 0 -1.88703e-06 3.55969e-07 0 0 0 0 
23 1.99953e-05 3.999e-05 0 -3.33819e-07 -7.15383e-07 0 0 0 0 
24 3.0013e-05 3.99874e-05 0 9.30647e-07 -8.99675e-07 0 0 0 0 
25 3.99653e-05 4.0025e-05 0 -2.48008e-06 1.78805e-06 0 0 0 0 
ITEM: TIMESTEP
15
ITEM: NUMBER OF ATOMS
25
ITEM: BOX BOUNDS pp pp pp
0 5e-05
0 5e-05
-5e-06 5e-06
ITEM: ATOMS id x y z vx vy vz fx fy fz 
1 -7.06409e-09 -1.69679e-08 0 -4.70939e-07 -1.13119e-06 0 0 0 0 
2 1.00391e-05 -2.71455e-08 0 2.60588e-06 -1.8097e-06 0 0 0 0 
3 1.9981e-05 2.72377e-08 0 -1.26695e-06 1.81585e-06 0 0 0 0 
4 3.00328e-05 5.12707e-08 0 2.18502e-06 3.41805e-06 0 0 0 0 
5 4.00341e-05 -5.60274e-09 0 2.27477e-06 -3.73516e-07 0 0 0 0 
6 -4.16715e-08 9.95768e-06 0 -2.7781e-06 -2.82152e-06 0 0 0 0 
7 1.00495e-05 1.00183e-05 0 3.30049e-06 1.21883e-06 0 0 0 0 
8 1.99668e-05 1.00503e-05 0 -2.21004e-06 3.35169e-06 0 0 0 0 
9 2.99465e-05 9.96719e-06 0 -3.56765e-06 -2.18733e-06 0 0 0 0 
10 3.99869e-05 1.00182e-05 0 -8.73604e-07 1.21183e-06 0 0 0 0 
11 2.35557e-08 1.99748e-05 0 1.57038e-06 -1.68217e-06 0 0 0 0 
12 1.00158e-05 1.99915e-05 0 1.05033e-06 -5.65897e-07 0 0 0 0 
13 1.9998e-05 1.9978e-05 0 -1.36466e-07 -1.46786e-06 0 0 0 0 
14 3.00275e-05 2.00336e-05 0 1.83302e-06 2.24187e-06 0 0 0 0 
15 3.99725e-05 2.00251e-05 0 -1.83607e-06 1.67368e-06 0 0 0 0 
16 2.9399e-08 2.99596e-05 0 1.95993e-06 -2.69151e-06 0 0 0 0 
17 1.00208e-05 2.99431e-05 0 1.38934e-06 -3.79368e-06 0 0 0 0 
18 1.9985e-05 3.00154e-05 0 -1.00176e-06 1.02759e-06 0 0 0 0 
19 3.00334e-05 3.00141e-05 0 2.22491e-06 9.36949e-07 0 0 0 0 
20 4.00245e-05 3.00245e-05 0 1.63465e-06 1.63296e-06 0 0 0 0 
21 -6.17531e-08 3.9992e-05 0 -4.11688e-06 -5.33876e-07 0 0 0 0 
22 9.97169e-06 4.00053e-05 0 -1.88703e-06 3.55969e-07 0 0 0 0 
23 1.9995e-05 3.99893e-05 0 -3.33819e-07 -7.15383e-07 0 0 0 0 
24 3.0014e-05 3.99865e-05 0 9.30647e-07 -8.99675e-07 0 0 0 0 
25 3.99628e-05 4.00268e-05 0 -2.48008e-06 1.78805e-06 0 0 0 0 
ITEM: TIMESTEP
16
ITEM: NUMBER OF ATOMS
25
ITEM: BOX BOUNDS pp pp pp
0 5e-05
0 5e-05
-5e-06 5e-06
ITEM: ATOMS id x y z vx vy vz fx fy fz 
1 -7.53502e-09 -1.80991e-08 0 -4.70939e-07 -1.13119e-06 0 0 0 0 
2 1.00417e-05 -2.89552e-08 0 2.60588e-06 -1.8097e-06 0 0 0 0 
3 1.99797e-05 2.90535e-08 0 -1.26695e-06 1.81585e-06 0 0 0 0 
4 3.0035e-05 5.46888e-08 0 2.18502e-06 3.41805e-06 0 0 0 0 
5 4.00364e-05 -5.97625e-09 0 2.27477e-06 -3.73516e-07 0 0 0 0 
6 -4.44496e-08 9.95486e-06 0 -2.7781e-06 -2.82152e-06 0 0 0 0 
7 1.00528e-05 1.00195e-05 0 3.30049e-06 1.21883e-06 0 0 0 0 
8 1.99646e-05 1.00536e-05 0 -2.21004e-06 3.35169e-06 0 0 0 0 
9 2.99429e-05 9.965e-06 0 -3.56765e-06 -2.18733e-06 0 0 0 0 
10 3.9986e-05 1.00194e-05 0 -8.73604e-07 1.21183e-06 0 0 0 0 
11 2.5126e-08 1.99731e-05 0 1.57038e-06 -1.68217e-06 0 0 0 0 
12 1.00168e-05 1.99909e-05 0 1.05033e-06 -5.65897e-07 0 0 0 0 
13 1.99978e-05 1.99765e-05 0 -1.36466e-07 -1.46786e-06 0 0 0 0 
14 3.00293e-05 2.00359e-05 0 1.83302e-06 2.24187e-06 0 0 0 0 
15 3.99706e-05 2.00268e-05 0 -1.83607e-06 1.67368e-06 0 0 0 0 
16 3.13589e-08 2.99569e-05 0 1.95993e-06 -2.69151e-06 0 0 0 0 
17 1.00222e-05 2.99393e-05 0 1.38934e-06 -3.79368e-06 0 0 0 0 
18 1.9984e-05 3.00164e-05 0 -1.00176e-06 1.02759e-06 0 0 0 0 
19 3.00356e-05 3.0015e-05 0 2.22491e-06 9.36949e-07 0 0 0 0 
20 4.00262e-05 3.00261e-05 0 1.63465e-06 1.63296e-06 0 0 0 0 
21 -6.587e-08 3.99915e-05 0 -4.11688e-06 -5.33876e-07 0 0 0 0 
22 9.96981e-06 4.00057e-05 0 -1.88703e-06 3.55969e-07 0 0 0 0 
23 1.99947e-05 3.99886e-05 0 -3.33819e-07 -7.15383e-07 0 0 0 0 
24 3.00149e-05 3.99856e-05 0 9.30647e-07 -8.99675e-07 0 0 0 0 
25 3.99603e-05 4.00286e-05 0 -2.48008e-06 1.78805e-06 0 0 0 0 
ITEM: TIMESTEP
17
ITEM: NUMBER OF ATOMS
25
ITEM: BOX BOUNDS pp pp pp
0 5e-05
0 5e-05
-5e-06 5e-06
ITEM: ATOMS id x y z vx vy vz fx fy fz 
1 -8.00596e-09 -1.92303e-08 0 -4.70939e-07 -1.13119e-06 0 0 0 0 
2 1.00443e-05 -3.07649e-08 0 2.60588e-06 -1.8097e-06 0 0 0 0 
3 1.99785e-05 3.08694e-08 0 -1.26695e-06 1.81585e-06 0 0 0 0 
4 3.00371e-05 5.81068e-08 0 2.18502e-06 3.41805e-06 0 0 0 0 
5 4.00387e-05 -6.34977e-09 0 2.27477e-06 -3.73516e-07 0 0 0 0 
6 -4.72277e-08 9.95203e-06 0 -2.7781e-06 -2.82152e-06 0 0 0 0 
7 1.00561e-05 1.00207e-05 0 3.30049e-06 1.21883e-06 0 0 0 0 
8 1.99624e-05 1.0057e-05 0 -2.21004e-06 3.35169e-06 0 0 0 0 
9 2.99393e-05 9.96282e-06 0 -3.56765e-06 -2.18733e-06 0 0 0 0 
10 3.99851e-05 1.00206e-05 0 -8.73604e-07 1.21183e-06 0 0 0 0 
11 2.66964e-08 1.99714e-05 0 1.57038e-06 -1.68217e-06 0 0 0 0 
12 1.00179e-05 1.99904e-05 0 1.05033e-06 -5.65897e-07 0 0 0 0 
13 1.99977e-05 1.9975e-05 0 -1.36466e-07 -1.46786e-06 0 0 0 0 
14 3.00312e-05 2.00381e-05 0 1.83302e-06 2.24187e-06 0 0 0 0 
15 3.99688e-05 2.00285e-05 0 -1.83607e-06 1.67368e-06 0 0 0 0 
16 3.33188e-08 2.99542e-05 0 1.95993e-06 -2.69151e-06 0 0 0 0 
17 1.00236e-05 2.99355e-05 0 1.38934e-06 -3.79368e-06 0 0 0 0 
18 1.9983e-05 3.00175e-05 0 -1.00176e-06 1.02759e-06 0 0 0 0 
19 3.00378e-05 3.00159e-05 0 2.22491e-06 9.36949e-07 0 0 0 0 
20 4.00278e-05 3.00278e-05 0 1.63465e-06 1.63296e-06 0 0 0 0 