ITEM: TIMESTEP
0
ITEM: NUMBER OF ATOMS
10
ITEM: BOX BOUNDS pp pp pp
0 5e-05
0 2e-05
-5e-06 5e-06
ITEM: ATOMS id x y z vx vy vz fx fy fz 
1 0 0 0 -1.0599e-07 -3.79806e-07 0 0 0 0 
2 1e-05 0 0 7.28427e-07 -5.63813e-07 0 0 0 0 
3 2e-05 0 0 -3.21864e-07 4.19415e-07 0 0 0 0 
4 3e-05 0 0 6.1429e-07 8.53923e-07 0 0 0 0 
5 4e-05 0 0 6.38632e-07 -1.74328e-07 0 0 0 0 
6 0 1e-05 0 -7.31679e-07 -8.38213e-07 0 0 0 0 
7 1e-05 1e-05 0 9.168e-07 2.57509e-07 0 0 0 0 
8 2e-05 1e-05 0 -5.77623e-07 8.35927e-07 0 0 0 0 
9 3e-05 1e-05 0 -9.45801e-07 -6.66225e-07 0 0 0 0 
10 4e-05 1e-05 0 -2.15191e-07 2.5561e-07 0 0 0 0 
ITEM: TIMESTEP
1000
ITEM: NUMBER OF ATOMS
10
ITEM: BOX BOUNDS pp pp pp
0 5e-05
0 2e-05
-5e-06 5e-06
ITEM: ATOMS id x y z vx vy vz fx fy fz 
1 -1.0599e-07 -3.79806e-07 0 -1.0599e-07 -3.79806e-07 0 0 0 0 
2 1.07284e-05 -5.63813e-07 0 7.28427e-07 -5.63813e-07 0 0 0 0 
3 1.96781e-05 4.19415e-07 0 -3.21864e-07 4.19415e-07 0 0 0 0 
4 3.06143e-05 8.53923e-07 0 6.1429e-07 8.53923e-07 0 0 0 0 
5 4.06386e-05 -1.74328e-07 0 6.38632e-07 -1.74328e-07 0 0 0 0 
6 -7.31679e-07 9.16179e-06 0 -7.31679e-07 -8.38213e-07 0 0 0 0 
7 1.09168e-05 1.02575e-05 0 9.168e-07 2.57509e-07 0 0 0 0 
8 1.94224e-05 1.08359e-05 0 -5.77623e-07 8.35927e-07 0 0 0 0 
9 2.90542e-05 9.33377e-06 0 -9.45801e-07 -6.66225e-07 0 0 0 0 
10 3.97848e-05 1.02556e-05 0 -2.15191e-07 2.5561e-07 0 0 0 0 
ITEM: TIMESTEP
2000
ITEM: NUMBER OF ATOMS
10
ITEM: BOX BOUNDS pp pp pp
0 5e-05
0 2e-05
-5e-06 5e-06
ITEM: ATOMS id x y z vx vy vz fx fy fz 
1 -2.1198e-07 -7.59611e-07 0 -1.0599e-07 -3.79806e-07 0 0 0 0 
2 1.14569e-05 -1.12763e-06 0 7.28427e-07 -5.63813e-07 0 0 0 0 
3 1.93563e-05 8.3883e-07 0 -3.21864e-07 4.19415e-07 0 0 0 0 
4 3.12382e-05 1.6828e-06 0 6.77104e-07 6.96584e-07 0 2.29849e-16 -5.13226e-16 0 
5 4.12773e-05 -3.48656e-07 0 6.38632e-07 -1.74328e-07 0 0 0 0 
6 -1.46336e-06 8.32357e-06 0 -7.31679e-07 -8.38213e-07 0 0 0 0 
7 1.17415e-05 1.05034e-05 0 5.58348e-07 2.08532e-07 0 -8.06872e-16 -1.32331e-16 0 
8 1.89368e-05 1.16835e-05 0 -2.19171e-07 8.84904e-07 0 8.06872e-16 1.32331e-16 0 
9 2.80988e-05 8.69259e-06 0 -1.00862e-06 -5.08885e-07 0 -2.29849e-16 5.13226e-16 0 
10 3.95696e-05 1.05112e-05 0 -2.15191e-07 2.5561e-07 0 0 0 0 
ITEM: TIMESTEP
3000
ITEM: NUMBER OF ATOMS
10
ITEM: BOX BOUNDS pp pp pp
0 5e-05
0 2e-05
-5e-06 5e-06
ITEM: ATOMS id x y z vx vy vz fx fy fz 
3 1.91475e-05 1.29706e-06 0 1.84722e-08 5.43282e-07 0 5.16785e-16 2.18789e-16 0 
4 3.20465e-05 2.1405e-06 0 9.01972e-07 3.08666e-07 0 0 0 0 
7 1.1869e-05 1.05931e-05 0 -2.64904e-07 -1.54722e-07 0 -6.14447e-16 -7.17304e-16 0 
8 1.91483e-05 1.26553e-05 0 6.01899e-07 1.06496e-06 0 6.00006e-16 1.69982e-16 0 
9 2.6959e-05 8.4226e-06 0 -1.23348e-06 -1.20968e-07 0 0 0 0 
10 3.93544e-05 1.07668e-05 0 -2.15191e-07 2.5561e-07 0 0 0 0 
6 4.7805e-05 7.48536e-06 0 -7.31679e-07 -8.38213e-07 0 0 0 0 
2 1.20724e-05 1.83017e-05 0 3.90272e-07 -5.04478e-07 0 -5.02344e-16 3.28534e-16 0 
5 4.19105e-05 1.94774e-05 0 5.6541e-07 -1.68699e-07 0 -5.05603e-16 4.01297e-17 0 
1 4.96875e-05 1.88602e-05 0 -3.27687e-08 -3.85434e-07 0 5.05603e-16 -4.01297e-17 0 
ITEM: TIMESTEP
4000
ITEM: NUMBER OF ATOMS
10
ITEM: BOX BOUNDS pp pp pp
0 5e-05
0 2e-05
-5e-06 5e-06
ITEM: ATOMS id x y z vx vy vz fx fy fz 
3 1.93702e-05 1.93487e-06 0 3.07398e-07 6.78891e-07 0 0 0 0 
4 3.29485e-05 2.44916e-06 0 9.01972e-07 3.08666e-07 0 0 0 0 
7 1.1475e-05 1.01254e-05 0 -4.29998e-07 -7.36919e-07 0 -4.7451e-17 -4.66852e-16 0 
8 1.98643e-05 1.37543e-05 0 7.31298e-07 1.10371e-06 0 0 0 0 
9 2.57255e-05 8.30163e-06 0 -1.23348e-06 -1.20968e-07 0 0 0 0 
10 3.91392e-05 1.10224e-05 0 -2.15191e-07 2.5561e-07 0 0 0 0 
6 4.70733e-05 6.64715e-06 0 -7.31679e-07 -8.38213e-07 0 0 0 0 
2 1.22735e-05 1.79816e-05 0 1.37042e-07 -9.66435e-08 0 4.7451e-17 4.66852e-16 0 
5 4.22002e-05 1.93339e-05 0 1.26893e-08 -1.15148e-07 0 -5.12759e-16 5.86559e-17 0 
1 4.99304e-05 1.84496e-05 0 5.19952e-07 -4.38986e-07 0 5.12759e-16 -5.86559e-17 0 
ITEM: TIMESTEP
5000
ITEM: NUMBER OF ATOMS
10
ITEM: BOX BOUNDS pp pp pp
0 5e-05
0 2e-05
-5e-06 5e-06
ITEM: ATOMS id x y z vx vy vz fx fy fz 
3 1.96536e-05 2.62065e-06 0 1.54437e-07 7.06178e-07 0 -5.60451e-16 -1.58596e-17 0 
4 3.38504e-05 2.75783e-06 0 9.01972e-07 3.08666e-07 0 0 0 0 
6 4.63426e-05 5.81055e-06 0 -7.08276e-07 -8.0172e-07 0 2.69959e-16 4.21754e-16 0 
7 1.10448e-05 9.38639e-06 0 -4.30212e-07 -7.39017e-07 0 0 0 0 
9 2.46077e-05 8.09042e-06 0 -9.15495e-07 -1.99325e-07 0 5.00965e-16 5.53114e-16 0 
10 3.8924e-05 1.12781e-05 0 -2.15191e-07 2.5561e-07 0 0 0 0 
1 5.33637e-07 1.80008e-05 0 6.11698e-07 -4.49769e-07 0 0 0 0 
2 1.24108e-05 1.7887e-05 0 1.37256e-07 -9.45453e-08 0 0 0 0 
8 2.05039e-05 1.49414e-05 0 5.66271e-07 1.15478e-06 0 5.94856e-17 -5.37254e-16 0 
5 4.21285e-05 1.92269e-05 0 -1.0246e-07 -1.40857e-07 0 -2.69959e-16 -4.21754e-16 0 
ITEM: TIMESTEP
6000
ITEM: NUMBER OF ATOMS
10
ITEM: BOX BOUNDS pp pp pp
0 5e-05
0 2e-05
-5e-06 5e-06
ITEM: ATOMS id x y z vx vy vz fx fy fz 
3 1.93955e-05 3.20214e-06 0 -7.59683e-07 3.83981e-07 0 -9.96347e-16 -3.45357e-16 0 
4 3.47524e-05 3.0665e-06 0 9.01972e-07 3.08666e-07 0 0 0 0 
6 4.5794e-05 5.26221e-06 0 -3.7702e-07 -2.7166e-07 0 3.34757e-16 5.4802e-16 0 
7 1.06146e-05 8.64737e-06 0 -4.30212e-07 -7.39017e-07 0 0 0 0 
9 2.40641e-05 8.30502e-06 0 -9.57522e-08 7.11179e-07 0 8.58744e-16 9.38622e-16 0 
10 3.87089e-05 1.15337e-05 0 -2.15191e-07 2.5561e-07 0 0 0 0 
1 1.14534e-06 1.75511e-05 0 6.11698e-07 -4.49769e-07 0 0 0 0 
2 1.2548e-05 1.77925e-05 0 1.37256e-07 -9.45453e-08 0 0 0 0 
8 2.11108e-05 1.58069e-05 0 6.60647e-07 5.66472e-07 0 1.37602e-16 -5.93265e-16 0 
5 4.18665e-05 1.88327e-05 0 -4.33715e-07 -6.70917e-07 0 -3.34757e-16 -5.4802e-16 0 
ITEM: TIMESTEP
7000
ITEM: NUMBER OF ATOMS
10
ITEM: BOX BOUNDS pp pp pp
0 5e-05
0 2e-05
-5e-06 5e-06
ITEM: ATOMS id x y z vx vy vz fx fy fz 
3 1.82693e-05 3.52172e-06 0 -1.30845e-06 3.03804e-07 0 0 0 0 
4 3.56344e-05 3.39175e-06 0 7.7905e-07 4.12684e-07 0 -3.78584e-16 3.40092e-16 0 
6 4.55424e-05 5.19823e-06 0 -2.00285e-07 2.13605e-08 0 0 0 0 
7 1.01844e-05 7.90835e-06 0 -4.30212e-07 -7.39017e-07 0 0 0 0 
9 2.43087e-05 9.20033e-06 0 4.75657e-07 7.82808e-07 0 2.25236e-16 -6.32663e-16 0 
10 3.8386e-05 1.15458e-05 0 -4.68745e-07 -3.12392e-07 0 -3.37569e-16 -7.34616e-16 0 
1 1.75703e-06 1.71013e-05 0 6.11698e-07 -4.49769e-07 0 0 0 0 
2 1.26853e-05 1.76979e-05 0 1.37256e-07 -9.45453e-08 0 0 0 0 
8 2.17976e-05 1.62537e-05 0 6.38008e-07 5.7502e-07 0 -2.25236e-16 6.32663e-16 0 
5 4.1435e-05 1.81809e-05 0 -2.33974e-07 -4.99953e-07 0 7.16152e-16 3.94524e-16 0 
ITEM: TIMESTEP
8000
ITEM: NUMBER OF ATOMS
10
ITEM: BOX BOUNDS pp pp pp
0 5e-05
0 2e-05
-5e-06 5e-06
ITEM: ATOMS id x y z vx vy vz fx fy fz 
3 1.70522e-05 3.93886e-06 0 -1.06864e-06 6.1537e-07 0 2.91685e-16 4.35323e-16 0 
4 3.62405e-05 3.89616e-06 0 4.78624e-07 3.43755e-07 0 -1.85322e-16 -8.54613e-16 0 
6 4.53421e-05 5.21959e-06 0 -2.00285e-07 2.13605e-08 0 0 0 0 
7 9.75415e-06 7.16934e-06 0 -4.30212e-07 -7.39017e-07 0 0 0 0 
9 2.48932e-05 9.67395e-06 0 6.80101e-07 1.98966e-07 0 1.53053e-16 -4.45128e-16 0 
10 3.77724e-05 1.09609e-05 0 -6.97967e-07 -6.28836e-07 0 -4.67378e-17 4.27144e-16 0 
1 2.36873e-06 1.66515e-05 0 6.11698e-07 -4.49769e-07 0 0 0 0 
2 1.27312e-05 1.749e-05 0 -1.02557e-07 -4.06111e-07 0 -2.91685e-16 -4.35323e-16 0 
8 2.23268e-05 1.71379e-05 0 4.33564e-07 1.15886e-06 0 -1.53053e-16 4.45128e-16 0 
5 4.15188e-05 1.78618e-05 0 2.95675e-07 -1.1458e-07 0 2.3206e-16 4.27469e-16 0 
ITEM: TIMESTEP
9000
ITEM: NUMBER OF ATOMS
10
ITEM: BOX BOUNDS pp pp pp
0 5e-05
0 2e-05
-5e-06 5e-06
ITEM: ATOMS id x y z vx vy vz fx fy fz 
3 1.62841e-05 4.56735e-06 0 -4.44949e-07 5.42838e-07 0 6.67963e-16 -1.81122e-16 0 
4 3.66254e-05 3.67964e-06 0 2.98948e-07 -7.65908e-07 0 -3.81241e-16 -5.29934e-16 0 
6 4.51419e-05 5.24095e-06 0 -2.00285e-07 2.13605e-08 0 0 0 0 
7 9.0881e-06 6.51858e-06 0 -9.79091e-07 -5.48905e-07 0 -6.67963e-16 1.81122e-16 0 
9 2.55744e-05 9.8696e-06 0 6.81245e-07 1.95638e-07 0 0 0 0 
10 3.71562e-05 1.08718e-05 0 -5.46744e-07 4.78281e-07 0 6.55892e-17 8.88737e-16 0 
1 2.98043e-06 1.62017e-05 0 6.11698e-07 -4.49769e-07 0 0 0 0 
2 1.2564e-05 1.69826e-05 0 -1.77369e-07 -5.23691e-07 0 0 0 0 
8 2.27592e-05 1.83e-05 0 4.3242e-07 1.16219e-06 0 0 0 0 
5 4.18263e-05 1.77677e-05 0 3.24127e-07 -1.12034e-07 0 3.15652e-16 -3.58803e-16 0 
ITEM: TIMESTEP
10000
ITEM: NUMBER OF ATOMS
10
ITEM: BOX BOUNDS pp pp pp
0 5e-05
0 2e-05
-5e-06 5e-06
ITEM: ATOMS id x y z vx vy vz fx fy fz 
3 1.60987e-05 5.05068e-06 0 -7.39223e-08 4.60623e-07 0 0 0 0 
4 3.67339e-05 2.86143e-06 0 -8.31608e-08 -6.90105e-07 0 -3.73499e-16 3.60371e-16 0 
6 4.49416e-05 5.26231e-06 0 -2.00285e-07 2.13605e-08 0 0 0 0 
7 7.84946e-06 6.02919e-06 0 -1.35012e-06 -4.6669e-07 0 0 0 0 
9 2.62557e-05 1.00652e-05 0 6.81245e-07 1.95638e-07 0 0 0 0 
10 3.66221e-05 1.15945e-05 0 -5.31493e-07 7.87865e-07 0 0 0 0 
1 3.59213e-06 1.5752e-05 0 6.11698e-07 -4.49769e-07 0 0 0 0 
2 1.23866e-05 1.64589e-05 0 -1.77369e-07 -5.23691e-07 0 0 0 0 
8 2.31916e-05 1.94622e-05 0 4.3242e-07 1.16219e-06 0 0 0 0 
5 4.23283e-05 1.74636e-05 0 6.90985e-07 -4.97421e-07 0 3.73499e-16 -3.60371e-16 0 
ITEM: TIMESTEP
11000
ITEM: NUMBER OF ATOMS
10
ITEM: BOX BOUNDS pp pp pp
0 5e-05
0 2e-05
-5e-06 5e-06
ITEM: ATOMS id x y z vx vy vz fx fy fz 
7 6.49934e-06 5.5625e-06 0 -1.35012e-06 -4.6669e-07 0 0 0 0 
3 1.60247e-05 5.5113e-06 0 -7.39223e-08 4.60623e-07 0 0 0 0 
8 2.3624e-05 6.24419e-07 0 4.3242e-07 1.16219e-06 0 0 0 0 
4 3.65773e-05 2.24086e-06 0 -1.65998e-07 -6.11726e-07 0 0 0 0 
6 4.47413e-05 5.28367e-06 0 -2.00285e-07 2.13605e-08 0 0 0 0 
9 2.69369e-05 1.02609e-05 0 6.81245e-07 1.95638e-07 0 0 0 0 
10 3.60906e-05 1.23823e-05 0 -5.31493e-07 7.87865e-07 0 0 0 0 
1 4.20382e-06 1.53022e-05 0 6.11698e-07 -4.49769e-07 0 0 0 0 
2 1.22092e-05 1.59352e-05 0 -1.77369e-07 -5.23691e-07 0 0 0 0 
5 4.30927e-05 1.68966e-05 0 7.73822e-07 -5.758e-07 0 0 0 0 
ITEM: TIMESTEP
12000
ITEM: NUMBER OF ATOMS
10
ITEM: BOX BOUNDS pp pp pp
0 5e-05
0 2e-05
-5e-06 5e-06
ITEM: ATOMS id x y z vx vy vz fx fy fz 
7 5.14922e-06 5.09581e-06 0 -1.35012e-06 -4.6669e-07 0 0 0 0 
3 1.59508e-05 5.97192e-06 0 -7.39223e-08 4.60623e-07 0 0 0 0 
8 2.40564e-05 1.78661e-06 0 4.3242e-07 1.16219e-06 0 0 0 0 
4 3.64113e-05 1.62913e-06 0 -1.65998e-07 -6.11726e-07 0 0 0 0 
6 4.4541e-05 5.30503e-06 0 -2.00285e-07 2.13605e-08 0 0 0 0 
9 2.76181e-05 1.04565e-05 0 6.81245e-07 1.95638e-07 0 0 0 0 
10 3.55591e-05 1.31702e-05 0 -5.31493e-07 7.87865e-07 0 0 0 0 
1 4.62867e-06 1.48378e-05 0 1.45332e-07 -4.86216e-07 0 -5.95576e-16 -4.61651e-17 0 
2 1.22187e-05 1.54261e-05 0 2.88997e-07 -4.87244e-07 0 5.95576e-16 4.61651e-17 0 
5 4.38666e-05 1.63208e-05 0 7.73822e-07 -5.758e-07 0 0 0 0 
ITEM: TIMESTEP
13000
ITEM: NUMBER OF ATOMS
10
ITEM: BOX BOUNDS pp pp pp
0 5e-05
0 2e-05
-5e-06 5e-06
ITEM: ATOMS id x y z vx vy vz fx fy fz 
7 3.79911e-06 4.62912e-06 0 -1.35012e-06 -4.6669e-07 0 0 0 0 
3 1.58769e-05 6.43255e-06 0 -7.39223e-08 4.60623e-07 0 0 0 0 
8 2.44889e-05 2.9488e-06 0 4.3242e-07 1.16219e-06 0 0 0 0 
4 3.62577e-05 1.10411e-06 0 -1.14442e-07 -2.67755e-07 0 1.30939e-16 7.93414e-16 0 
6 4.43407e-05 5.32639e-06 0 -2.00285e-07 2.13605e-08 0 0 0 0 
9 2.82467e-05 1.06291e-05 0 4.46411e-07 9.02046e-08 0 -5.64179e-16 -2.70076e-16 0 
1 4.54294e-06 1.43338e-05 0 -1.78534e-07 -5.11174e-07 0 0 0 0 
2 1.27388e-05 1.49567e-05 0 6.12863e-07 -4.62286e-07 0 0 0 0 
10 3.50679e-05 1.38944e-05 0 -3.48214e-07 5.49327e-07 0 4.3324e-16 -5.23338e-16 0 
5 4.46404e-05 1.5745e-05 0 7.73822e-07 -5.758e-07 0 0 0 0 
ITEM: TIMESTEP
14000
ITEM: NUMBER OF ATOMS
10
ITEM: BOX BOUNDS pp pp pp
0 5e-05
0 2e-05
-5e-06 5e-06
ITEM: ATOMS id x y z vx vy vz fx fy fz 
7 2.44899e-06 4.16242e-06 0 -1.35012e-06 -4.6669e-07 0 0 0 0 
3 1.5803e-05 6.89317e-06 0 -7.39223e-08 4.60623e-07 0 0 0 0 
8 2.48996e-05 4.06997e-06 0 3.18952e-07 9.48656e-07 0 -3.40676e-16 -6.34455e-16 0 
4 3.62247e-05 1.29783e-06 0 5.143e-08 6.605e-07 0 1.46882e-16 8.21874e-16 0 
6 4.41404e-05 5.34775e-06 0 -2.00285e-07 2.13605e-08 0 0 0 0 
9 2.84076e-05 1.06031e-05 0 -6.31981e-08 -2.1722e-08 0 -2.81804e-16 2.97747e-16 0 
1 4.36441e-06 1.38226e-05 0 -1.78534e-07 -5.11174e-07 0 0 0 0 
2 1.33516e-05 1.44944e-05 0 6.12863e-07 -4.62286e-07 0 0 0 0 
10 3.49454e-05 1.41395e-05 0 1.0899e-07 -5.34664e-08 0 4.75598e-16 -4.85166e-16 0 
5 4.54142e-05 1.51692e-05 0 7.73822e-07 -5.758e-07 0 0 0 0 
ITEM: TIMESTEP
15000
ITEM: NUMBER OF ATOMS
10
ITEM: BOX BOUNDS pp pp pp
0 5e-05
0 2e-05
-5e-06 5e-06
ITEM: ATOMS id x y z vx vy vz fx fy fz 
7 1.17388e-06 3.68078e-06 0 -1.05232e-06 -5.2873e-07 0 6.43135e-16 -1.49882e-16 0 
8 2.49929e-05 4.59965e-06 0 -1.63535e-07 4.92204e-08 0 -4.95781e-16 -9.43694e-16 0 
4 3.63243e-05 2.24225e-06 0 1.17771e-07 1.05612e-06 0 0 0 0 
6 4.38651e-05 5.38407e-06 0 -4.98086e-07 8.34006e-08 0 -6.43135e-16 1.49882e-16 0 
3 1.58007e-05 7.11509e-06 0 8.94286e-08 -1.00788e-07 0 1.8731e-16 -7.02568e-16 0 
9 2.82748e-05 1.08465e-05 0 -1.53246e-07 5.88603e-07 0 -1.69643e-17 7.16796e-16 0 
1 4.18587e-06 1.33114e-05 0 -1.78534e-07 -5.11174e-07 0 0 0 0 
2 1.38929e-05 1.42708e-05 0 4.49512e-07 9.91249e-08 0 -1.8731e-16 7.02568e-16 0 
10 3.53015e-05 1.3956e-05 0 6.15184e-07 -1.59973e-07 0 5.12745e-16 2.26899e-16 0 
5 4.6188e-05 1.45934e-05 0 7.73822e-07 -5.758e-07 0 0 0 0 
ITEM: TIMESTEP
16000
ITEM: NUMBER OF ATOMS
10
ITEM: BOX BOUNDS pp pp pp
0 5e-05
0 2e-05
-5e-06 5e-06
ITEM: ATOMS id x y z vx vy vz fx fy fz 
7 4.48179e-07 3.06455e-06 0 -4.21803e-07 -7.09019e-07 0 5.24355e-16 -1.83774e-16 0 
8 2.46485e-05 4.2951e-06 0 -4.38122e-07 -4.92735e-07 0 0 0 0 
4 3.62957e-05 3.24386e-06 0 -3.24331e-07 8.95385e-07 0 -7.7791e-16 -2.67047e-16 0 
6 4.31868e-05 5.60948e-06 0 -6.86498e-07 4.24421e-07 0 2.53555e-16 4.50821e-16 0 
3 1.59652e-05 6.71436e-06 0 2.05543e-07 -5.72367e-07 0 0 0 0 
9 2.814e-05 1.1722e-05 0 -8.41253e-08 1.04667e-06 0 0 0 0 
1 4.17802e-06 1.27719e-05 0 2.80834e-07 -5.88245e-07 0 6.56158e-16 -1.13175e-16 0 
2 1.42673e-05 1.46699e-05 0 3.33398e-07 5.70704e-07 0 0 0 0 
10 3.60791e-05 1.38628e-05 0 8.2065e-07 -7.60821e-08 0 0 0 0 
5 4.67912e-05 1.4046e-05 0 3.14454e-07 -4.98729e-07 0 -6.56158e-16 1.13175e-16 0 
ITEM: TIMESTEP
17000
ITEM: NUMBER OF ATOMS
10
ITEM: BOX BOUNDS pp pp pp
0 5e-05
0 2e-05
-5e-06 5e-06
ITEM: ATOMS id x y z vx vy vz fx fy fz 
7 1.47053e-07 2.31082e-06 0 -2.81123e-07 -7.61318e-07 0 0 0 0 
3 1.61708e-05 6.14199e-06 0 2.05543e-07 -5.72367e-07 0 0 0 0 
8 2.42104e-05 3.80237e-06 0 -4.38122e-07 -4.92735e-07 0 0 0 0 
4 3.55608e-05 4.00389e-06 0 -1.11186e-06 6.40115e-07 0 -5.99742e-16 -1.83347e-16 0 
6 4.27902e-05 6.21397e-06 0 -3.9652e-08 7.3199e-07 0 5.99742e-16 1.83347e-16 0 
1 4.75225e-06 1.21319e-05 0 7.57144e-07 -6.72724e-07 0 0 0 0 
9 2.80558e-05 1.27687e-05 0 -8.41253e-08 1.04667e-06 0 0 0 0 
2 1.46007e-05 1.52406e-05 0 3.33398e-07 5.70704e-07 0 0 0 0 
10 3.68997e-05 1.37867e-05 0 8.2065e-07 -7.60821e-08 0 0 0 0 
5 4.68122e-05 1.3599e-05 0 -1.61857e-07 -4.1425e-07 0 0 0 0 
ITEM: TIMESTEP
18000
ITEM: NUMBER OF ATOMS
10
ITEM: BOX BOUNDS pp pp pp
0 5e-05
0 2e-05
-5e-06 5e-06
ITEM: ATOMS id x y z vx vy vz fx fy fz 
7 -1.3407e-07 1.5495e-06 0 -2.81123e-07 -7.61318e-07 0 0 0 0 
3 1.63605e-05 5.57442e-06 0 8.1743e-08 -5.34785e-07 0 -4.99426e-16 1.52604e-16 0 
8 2.37881e-05 3.30484e-06 0 -3.14321e-07 -5.30318e-07 0 4.99426e-16 -1.52604e-16 0 
4 3.43221e-05 4.60573e-06 0 -1.25826e-06 5.9598e-07 0 0 0 0 
6 4.28349e-05 6.91151e-06 0 -5.99858e-08 4.93819e-07 0 -3.69951e-16 -6.08534e-16 0 
1 5.50939e-06 1.14592e-05 0 7.57144e-07 -6.72724e-07 0 0 0 0 
9 2.79717e-05 1.38154e-05 0 -8.41253e-08 1.04667e-06 0 0 0 0 
2 1.49341e-05 1.58113e-05 0 3.33398e-07 5.70704e-07 0 0 0 0 
10 3.77204e-05 1.37107e-05 0 8.2065e-07 -7.60821e-08 0 0 0 0 
5 4.66929e-05 1.32575e-05 0 4.87609e-09 -1.31944e-07 0 3.69951e-16 6.08534e-16 0 
ITEM: TIMESTEP
19000
ITEM: NUMBER OF ATOMS
10
ITEM: BOX BOUNDS pp pp pp
0 5e-05
0 2e-05
-5e-06 5e-06
ITEM: ATOMS id x y z vx vy vz fx fy fz 
3 1.61852e-05 5.11951e-06 0 -4.03721e-07 -3.82816e-07 0 0 0 0 
8 2.37308e-05 2.69464e-06 0 1.71142e-07 -6.82287e-07 0 0 0 0 
4 3.30639e-05 5.20171e-06 0 -1.25826e-06 5.9598e-07 0 0 0 0 
7 4.95851e-05 7.88851e-07 0 -2.72075e-07 -7.36643e-07 0 1.70694e-16 4.6652e-16 0 
1 6.26654e-06 1.07865e-05 0 7.57144e-07 -6.72724e-07 0 0 0 0 
6 4.25892e-05 7.07214e-06 0 -3.62424e-07 -2.36544e-07 0 -3.14183e-17 -9.20591e-16 0 
5 4.68958e-05 1.34389e-05 0 3.81716e-07 4.44256e-07 0 1.42781e-16 -3.08744e-18 0 
2 1.52675e-05 1.6382e-05 0 3.33398e-07 5.70704e-07 0 0 0 0 
9 2.78876e-05 1.4862e-05 0 -8.41253e-08 1.04667e-06 0 0 0 0 
10 3.85285e-05 1.36537e-05 0 7.37201e-07 5.3406e-08 0 -2.82057e-16 4.57159e-16 0 
ITEM: TIMESTEP
20000
ITEM: NUMBER OF ATOMS
10
ITEM: BOX BOUNDS pp pp pp
0 5e-05
0 2e-05
-5e-06 5e-06
ITEM: ATOMS id x y z vx vy vz fx fy fz 
3 1.57816e-05 4.73997e-06 0 -4.021e-07 -3.25805e-07 0 1.1858e-17 5.10812e-16 0 
8 2.38777e-05 2.05242e-06 0 3.98822e-08 -4.68767e-07 0 -4.19366e-16 6.56517e-16 0 
4 3.18056e-05 5.79769e-06 0 -1.25826e-06 5.9598e-07 0 0 0 0 
7 4.94312e-05 3.87739e-07 0 -8.89888e-09 2.51588e-08 0 3.09029e-16 9.41688e-16 0 
1 7.02368e-06 1.01138e-05 0 7.57144e-07 -6.72724e-07 0 0 0 0 
6 4.22998e-05 6.53278e-06 0 -2.20238e-07 -6.93627e-07 0 0 0 0 
5 4.72117e-05 1.36247e-05 0 1.76659e-07 -2.32108e-07 0 -3.09029e-16 -9.41688e-16 0 
2 1.56008e-05 1.69494e-05 0 3.31777e-07 5.13694e-07 0 -1.1858e-17 -5.10812e-16 0 
9 2.78277e-05 1.58686e-05 0 4.71348e-08 8.33147e-07 0 4.19366e-16 -6.56517e-16 0 
10 3.91403e-05 1.39329e-05 0 5.36894e-07 4.25053e-07 0 0 0 0 
ITEM: TIMESTEP
21000
ITEM: NUMBER OF ATOMS
10
ITEM: BOX BOUNDS pp pp pp
0 5e-05
0 2e-05
-5e-06 5e-06
ITEM: ATOMS id x y z vx vy vz fx fy fz 
3 1.53764e-05 4.71541e-06 0 -4.18559e-07 2.96489e-07 0 -4.5687e-17 6.17079e-16 0 
8 2.36392e-05 1.9871e-06 0 -5.37584e-07 3.39909e-07 0 -5.24309e-16 6.60738e-16 0 
4 3.05474e-05 6.39367e-06 0 -1.25826e-06 5.9598e-07 0 0 0 0 
6 4.20795e-05 5.83915e-06 0 -2.20238e-07 -6.93627e-07 0 0 0 0 
7 4.95434e-05 7.95151e-07 0 1.83379e-07 6.38916e-07 0 0 0 0 
1 7.78083e-06 9.44104e-06 0 7.57144e-07 -6.72724e-07 0 0 0 0 
2 1.59356e-05 1.71619e-05 0 3.48236e-07 -1.086e-07 0 4.5687e-17 -6.17079e-16 0 
9 2.81533e-05 1.62983e-05 0 6.24601e-07 2.44717e-08 0 5.24309e-16 -6.60738e-16 0 
10 3.96116e-05 1.43657e-05 0 2.83995e-07 4.5866e-07 0 -4.83615e-16 8.53835e-17 0 
5 4.73327e-05 1.30025e-05 0 2.37281e-07 -8.79473e-07 0 4.83615e-16 -8.53835e-17 0 
ITEM: TIMESTEP
22000
ITEM: NUMBER OF ATOMS
10
ITEM: BOX BOUNDS pp pp pp
0 5e-05
0 2e-05
-5e-06 5e-06
ITEM: ATOMS id x y z vx vy vz fx fy fz 
3 1.49691e-05 5.18647e-06 0 -2.61894e-07 4.36805e-07 0 6.42304e-16 -3.57789e-16 0 
8 2.29258e-05 2.49938e-06 0 -8.6715e-07 4.86819e-07 0 -4.1003e-16 -2.89319e-16 0 
6 4.18593e-05 5.14553e-06 0 -2.20238e-07 -6.93627e-07 0 0 0 0 
7 4.97268e-05 1.43407e-06 0 1.83379e-07 6.38916e-07 0 0 0 0 
1 8.5091e-06 8.78491e-06 0 5.77589e-07 -5.70369e-07 0 -6.42304e-16 3.57789e-16 0 
4 2.93106e-05 7.00456e-06 0 -1.12623e-06 6.87855e-07 0 4.1003e-16 2.89319e-16 0 
5 4.76537e-05 1.21069e-05 0 3.30043e-07 -8.97425e-07 0 0 0 0 
2 1.63015e-05 1.68621e-05 0 3.71126e-07 -3.51272e-07 0 0 0 0 
9 2.89321e-05 1.61355e-05 0 8.22145e-07 -2.14314e-07 0 0 0 0 
10 3.98119e-05 1.48405e-05 0 1.91233e-07 4.76612e-07 0 0 0 0 
ITEM: TIMESTEP
23000
ITEM: NUMBER OF ATOMS
10
ITEM: BOX BOUNDS pp pp pp
0 5e-05
0 2e-05
-5e-06 5e-06
ITEM: ATOMS id x y z vx vy vz fx fy fz 
3 1.50884e-05 5.41423e-06 0 3.98405e-07 6.14239e-08 0 1.65872e-16 -1.50241e-16 0 
8 2.19577e-05 2.85591e-06 0 -8.16144e-07 2.43386e-07 0 7.35685e-16 -2.73988e-16 0 
6 4.1639e-05 4.4519e-06 0 -2.20238e-07 -6.93627e-07 0 0 0 0 
7 4.99102e-05 2.07298e-06 0 1.83379e-07 6.38916e-07 0 0 0 0 
1 8.65201e-06 8.44288e-06 0 -3.40893e-07 -1.00944e-07 0 -9.01557e-16 4.24229e-16 0 
4 2.83387e-05 7.80342e-06 0 -9.19055e-07 8.37245e-07 0 0 0 0 
5 4.79838e-05 1.12095e-05 0 3.30043e-07 -8.97425e-07 0 0 0 0 
2 1.66727e-05 1.65108e-05 0 3.71126e-07 -3.51272e-07 0 0 0 0 
9 2.97543e-05 1.59212e-05 0 8.22145e-07 -2.14314e-07 0 0 0 0 
10 4.00031e-05 1.53171e-05 0 1.91233e-07 4.76612e-07 0 0 0 0 
ITEM: TIMESTEP
24000
ITEM: NUMBER OF ATOMS
10
ITEM: BOX BOUNDS pp pp pp
0 5e-05
0 2e-05
-5e-06 5e-06
ITEM: ATOMS id x y z vx vy vz fx fy fz 
7 9.37909e-08 2.71101e-06 0 1.90172e-07 6.09801e-07 0 1.15056e-16 -4.91331e-16 0 
3 1.53072e-05 5.5235e-06 0 -1.62479e-07 2.5446e-07 0 -1.22136e-15 5.04638e-16 0 
8 2.1673e-05 2.89331e-06 0 3.51355e-07 -2.17128e-07 0 1.22136e-15 -5.04638e-16 0 
6 4.14188e-05 3.75827e-06 0 -2.20238e-07 -6.93627e-07 0 0 0 0 
1 7.95934e-06 8.50007e-06 0 -9.47509e-07 1.66533e-07 0 0 0 0 
4 2.74037e-05 8.5961e-06 0 -9.95986e-07 6.3501e-07 0 -2.01017e-16 -4.5107e-16 0 
5 4.83136e-05 1.03129e-05 0 3.2325e-07 -8.6831e-07 0 -1.15056e-16 4.91331e-16 0 
2 1.70438e-05 1.61596e-05 0 3.71126e-07 -3.51272e-07 0 0 0 0 
9 3.05924e-05 1.57515e-05 0 8.99075e-07 -1.20788e-08 0 2.01017e-16 4.5107e-16 0 
10 4.01944e-05 1.57937e-05 0 1.91233e-07 4.76612e-07 0 0 0 0 
ITEM: TIMESTEP
25000
ITEM: NUMBER OF ATOMS
10
ITEM: BOX BOUNDS pp pp pp
0 5e-05
0 2e-05
-5e-06 5e-06
ITEM: ATOMS id x y z vx vy vz fx fy fz 
7 3.7227e-07 2.96183e-06 0 3.9553e-07 -2.05995e-07 0 2.66714e-16 -1.0006e-15 0 
3 1.47441e-05 5.9473e-06 0 -7.36563e-07 4.98496e-07 0 0 0 0 
8 2.23771e-05 2.44297e-06 0 7.64335e-07 -6.8853e-07 0 -2.42344e-16 -4.06206e-16 0 
6 4.12303e-05 3.29202e-06 0 -1.4287e-07 -1.18093e-07 0 9.70664e-17 8.02848e-16 0 
1 7.01184e-06 8.6666e-06 0 -9.47509e-07 1.66533e-07 0 0 0 0 
4 2.64179e-05 9.21592e-06 0 -8.76702e-07 7.7458e-07 0 2.42344e-16 4.06206e-16 0 
5 4.85486e-05 9.80361e-06 0 1.17892e-07 -5.25148e-08 0 -2.66714e-16 1.0006e-15 0 
2 1.74149e-05 1.58083e-05 0 3.71126e-07 -3.51272e-07 0 0 0 0 
9 3.15291e-05 1.58185e-05 0 9.40895e-07 7.57175e-08 0 0 0 0 
10 4.03539e-05 1.6043e-05 0 1.13866e-07 -9.89227e-08 0 -9.70664e-17 -8.02848e-16 0 
ITEM: TIMESTEP
26000
ITEM: NUMBER OF ATOMS
10
ITEM: BOX BOUNDS pp pp pp
0 5e-05
0 2e-05
-5e-06 5e-06
ITEM: ATOMS id x y z vx vy vz fx fy fz 
7 8.77141e-07 2.35957e-06 0 5.70368e-07 -8.32971e-07 0 0 0 0 
3 1.40076e-05 6.4458e-06 0 -7.36563e-07 4.98496e-07 0 0 0 0 
8 2.31343e-05 1.74227e-06 0 7.57034e-07 -7.00884e-07 0 0 0 0 
6 4.11273e-05 3.53533e-06 0 -7.6183e-08 5.08526e-07 0 0 0 0 
1 6.09259e-06 8.82863e-06 0 -7.7481e-07 1.38343e-07 0 5.54933e-16 -9.70818e-17 0 
4 2.55484e-05 1.00027e-05 0 -8.69401e-07 7.86934e-07 0 0 0 0 
5 4.85289e-05 1.01519e-05 0 -2.29645e-07 6.02652e-07 0 -5.54933e-16 9.70818e-17 0 
2 1.7786e-05 1.5457e-05 0 3.71126e-07 -3.51272e-07 0 0 0 0 
9 3.247e-05 1.58942e-05 0 9.40895e-07 7.57175e-08 0 0 0 0 
10 4.04278e-05 1.55827e-05 0 4.71783e-08 -7.25542e-07 0 0 0 0 
ITEM: TIMESTEP
27000
ITEM: NUMBER OF ATOMS
10
ITEM: BOX BOUNDS pp pp pp
0 5e-05
0 2e-05
-5e-06 5e-06
ITEM: ATOMS id x y z vx vy vz fx fy fz 
7 1.44751e-06 1.5266e-06 0 5.70368e-07 -8.32971e-07 0 0 0 0 
3 1.3271e-05 6.94429e-06 0 -7.36563e-07 4.98496e-07 0 0 0 0 
8 2.38913e-05 1.04139e-06 0 7.57034e-07 -7.00884e-07 0 0 0 0 
6 4.10512e-05 4.04386e-06 0 -7.6183e-08 5.08526e-07 0 0 0 0 
1 5.60689e-06 8.90917e-06 0 -2.10324e-07 1.87466e-08 0 4.79892e-16 -1.20223e-16 0 
4 2.46794e-05 1.07893e-05 0 -8.50269e-07 7.74251e-07 0 4.1589e-16 -2.75237e-16 0 
5 4.80101e-05 1.08123e-05 0 -7.9413e-07 7.22249e-07 0 -4.79892e-16 1.20223e-16 0 
2 1.81567e-05 1.51061e-05 0 3.51994e-07 -3.38589e-07 0 -4.1589e-16 2.75237e-16 0 
9 3.31772e-05 1.59894e-05 0 4.15929e-07 1.28832e-07 0 -5.8724e-16 8.98027e-17 0 
10 4.07086e-05 1.48376e-05 0 5.72145e-07 -7.78656e-07 0 5.8724e-16 -8.98027e-17 0 
ITEM: TIMESTEP
28000
ITEM: NUMBER OF ATOMS
10
ITEM: BOX BOUNDS pp pp pp
0 5e-05
0 2e-05
-5e-06 5e-06
ITEM: ATOMS id x y z vx vy vz fx fy fz 
7 2.01788e-06 6.93629e-07 0 5.70368e-07 -8.32971e-07 0 0 0 0 
3 1.27801e-05 7.38387e-06 0 -2.24794e-07 3.79624e-07 0 5.1632e-16 -1.08365e-16 0 
8 2.46483e-05 3.40507e-07 0 7.57034e-07 -7.00884e-07 0 0 0 0 
6 4.0975e-05 4.55239e-06 0 -7.6183e-08 5.08526e-07 0 0 0 0 
1 5.19082e-06 8.97671e-06 0 -6.80345e-07 1.27025e-07 0 -5.1632e-16 1.08365e-16 0 
4 2.41547e-05 1.13549e-05 0 -8.6957e-08 2.92711e-07 0 9.97089e-16 -6.04635e-16 0 
5 4.73934e-05 1.14375e-05 0 -1.18307e-07 3.91451e-07 0 1.60083e-15 -7.0345e-16 0 
2 1.81831e-05 1.49761e-05 0 -4.11317e-07 1.42952e-07 0 -9.97089e-16 6.04635e-16 0 
9 3.3391e-05 1.61541e-05 0 1.49051e-07 1.77104e-07 0 0 0 0 
10 4.12656e-05 1.41302e-05 0 1.2145e-07 -4.85537e-07 0 -1.60083e-15 7.0345e-16 0 
ITEM: TIMESTEP
29000
ITEM: NUMBER OF ATOMS
10
ITEM: BOX BOUNDS pp pp pp
0 5e-05
0 2e-05
-5e-06 5e-06
ITEM: ATOMS id x y z vx vy vz fx fy fz 
7 2.58824e-06 -1.39342e-07 0 5.70368e-07 -8.32971e-07 0 0 0 0 
8 2.54054e-05 -3.60378e-07 0 7.57034e-07 -7.00884e-07 0 0 0 0 
6 4.08988e-05 5.06091e-06 0 -7.6183e-08 5.08526e-07 0 0 0 0 
1 4.52343e-06 9.08253e-06 0 -3.73068e-07 -2.91507e-09 0 9.51612e-16 -3.57383e-16 0 
3 1.26705e-05 7.73997e-06 0 -9.19077e-08 3.52535e-07 0 0 0 0 
4 2.44607e-05 1.14154e-05 0 5.40214e-07 -7.47955e-08 0 0 0 0 
5 4.78802e-05 1.15774e-05 0 6.8579e-07 6.32579e-08 0 -3.57694e-16 1.63095e-16 0 
2 1.73789e-05 1.53513e-05 0 -1.03849e-06 5.10458e-07 0 0 0 0 
9 3.35024e-05 1.63431e-05 0 -5.18272e-08 2.41513e-07 0 -5.81541e-16 1.95275e-16 0 
10 4.06915e-05 1.39291e-05 0 -9.21931e-07 -6.47245e-08 0 -1.23771e-17 -9.87221e-19 0 
ITEM: TIMESTEP
30000
ITEM: NUMBER OF ATOMS
10
ITEM: BOX BOUNDS pp pp pp
0 5e-05
0 2e-05
-5e-06 5e-06
ITEM: ATOMS id x y z vx vy vz fx fy fz 
7 3.15861e-06 -9.72314e-07 0 5.70368e-07 -8.32971e-07 0 0 0 0 
8 2.61337e-05 -1.01765e-06 0 5.81081e-07 -4.5207e-07 0 -6.33458e-16 7.52126e-16 0 
6 4.08226e-05 5.56944e-06 0 -7.6183e-08 5.08526e-07 0 0 0 0 
1 4.7224e-06 8.85034e-06 0 7.29239e-07 -4.5812e-07 0 3.00053e-16 -3.01391e-16 0 
3 1.25786e-05 8.09251e-06 0 -8.7937e-08 3.5215e-07 0 4.68576e-16 -4.52002e-17 0 
4 2.49963e-05 1.13085e-05 0 5.14212e-07 -2.55145e-07 0 -7.71441e-17 -5.20514e-16 0 
5 4.81018e-05 1.18357e-05 0 -2.98887e-07 4.80284e-07 0 -7.68628e-16 3.46591e-16 0 
2 1.63404e-05 1.58617e-05 0 -1.03849e-06 5.10458e-07 0 0 0 0 
9 3.31487e-05 1.66959e-05 0 -5.31218e-07 4.32605e-07 0 6.70074e-17 4.28145e-17 0 
10 3.99968e-05 1.37759e-05 0 -3.62186e-07 -2.85718e-07 0 6.43595e-16 -2.74427e-16 0 
ITEM: TIMESTEP
31000
ITEM: NUMBER OF ATOMS
10
ITEM: BOX BOUNDS pp pp pp
0 5e-05
0 2e-05
-5e-06 5e-06
ITEM: ATOMS id x y z vx vy vz fx fy fz 
6 4.07567e-05 5.98899e-06 0 -3.84245e-08 1.83324e-07 0 7.5193e-17 -6.48481e-16 0 
1 5.35439e-06 8.31849e-06 0 3.38563e-07 -5.45824e-07 0 -7.09488e-16 -1.04191e-17 0 
3 1.27839e-05 8.42759e-06 0 5.4434e-07 3.27616e-07 0 7.09488e-16 1.04191e-17 0 
4 2.54775e-05 1.08255e-05 0 4.6574e-07 -5.92361e-07 0 0 0 0 
5 4.76133e-05 1.24059e-05 0 -4.61251e-07 5.81154e-07 0 5.05964e-16 -6.87841e-17 0 
7 3.72898e-06 1.81947e-05 0 5.70368e-07 -8.32971e-07 0 0 0 0 
2 1.53019e-05 1.63722e-05 0 -1.03849e-06 5.10458e-07 0 0 0 0 
8 2.62178e-05 1.89185e-05 0 -5.44215e-07 2.30744e-07 0 -1.24916e-15 3.42656e-16 0 
9 3.28746e-05 1.70925e-05 0 1.44688e-07 3.20644e-07 0 1.24916e-15 -3.42656e-16 0 
10 3.98909e-05 1.34557e-05 0 1.86807e-08 -1.82783e-07 0 -5.81157e-16 7.17265e-16 0 
ITEM: TIMESTEP
32000
ITEM: NUMBER OF ATOMS
10
ITEM: BOX BOUNDS pp pp pp
0 5e-05
0 2e-05
-5e-06 5e-06
ITEM: ATOMS id x y z vx vy vz fx fy fz 
6 4.07573e-05 5.84343e-06 0 3.82063e-08 -4.50376e-07 0 6.74891e-17 -5.19693e-16 0 
1 5.41282e-06 7.76016e-06 0 -7.11957e-08 -5.66658e-07 0 0 0 0 
3 1.36084e-05 8.76772e-06 0 9.54099e-07 3.4845e-07 0 0 0 0 
4 2.59432e-05 1.02332e-05 0 4.6574e-07 -5.92361e-07 0 0 0 0 
5 4.74301e-05 1.29562e-05 0 1.02861e-07 5.24194e-07 0 5.53856e-16 -4.22344e-17 0 
7 4.29935e-06 1.73617e-05 0 5.70368e-07 -8.32971e-07 0 0 0 0 
2 1.42634e-05 1.68826e-05 0 -1.03849e-06 5.10458e-07 0 0 0 0 
8 2.52489e-05 1.92613e-05 0 -1.17248e-06 3.9472e-07 0 0 0 0 
9 3.32788e-05 1.73923e-05 0 3.69545e-07 3.84231e-07 0 -5.50592e-16 3.27269e-16 0 
10 3.97577e-05 1.35413e-05 0 -2.18659e-07 2.80313e-07 0 -7.07529e-17 2.34659e-16 0 
ITEM: TIMESTEP
33000
ITEM: NUMBER OF ATOMS
10
ITEM: BOX BOUNDS pp pp pp
0 5e-05
0 2e-05
-5e-06 5e-06
ITEM: ATOMS id x y z vx vy vz fx fy fz 
6 4.08055e-05 5.31706e-06 0 4.91071e-08 -5.33209e-07 0 0 0 0 
1 5.34162e-06 7.1935e-06 0 -7.11957e-08 -5.66658e-07 0 0 0 0 
3 1.45625e-05 9.11617e-06 0 9.54099e-07 3.4845e-07 0 0 0 0 
4 2.64089e-05 9.64081e-06 0 4.6574e-07 -5.92361e-07 0 0 0 0 
7 4.89521e-06 1.65409e-05 0 7.21299e-07 -7.63161e-07 0 4.54402e-16 1.94765e-16 0 
2 1.32249e-05 1.73931e-05 0 -1.03849e-06 5.10458e-07 0 0 0 0 
8 2.40764e-05 1.9656e-05 0 -1.17248e-06 3.9472e-07 0 0 0 0 
9 3.33527e-05 1.79596e-05 0 -2.16406e-07 7.54481e-07 0 -5.1265e-16 3.45287e-16 0 
10 3.96359e-05 1.37277e-05 0 1.10189e-07 9.75436e-09 0 5.1265e-16 -3.45287e-16 0 
5 4.76962e-05 1.34552e-05 0 1.98133e-07 4.37524e-07 0 -4.54402e-16 -1.94765e-16 0 
ITEM: TIMESTEP
34000
ITEM: NUMBER OF ATOMS
10
ITEM: BOX BOUNDS pp pp pp
0 5e-05
0 2e-05
-5e-06 5e-06
ITEM: ATOMS id x y z vx vy vz fx fy fz 
6 4.08546e-05 4.78385e-06 0 4.91071e-08 -5.33209e-07 0 0 0 0 
1 5.27042e-06 6.62684e-06 0 -7.11957e-08 -5.66658e-07 0 0 0 0 
3 1.55166e-05 9.46462e-06 0 9.54099e-07 3.4845e-07 0 0 0 0 
4 2.68747e-05 9.04845e-06 0 4.6574e-07 -5.92361e-07 0 0 0 0 
7 5.57978e-06 1.57931e-05 0 3.54844e-07 -8.28792e-07 0 -9.65231e-16 -3.05877e-16 0 
2 1.23477e-05 1.79378e-05 0 -5.22992e-07 6.3521e-07 0 9.65231e-16 3.05877e-16 0 
8 2.29039e-05 2.00508e-05 0 -1.17248e-06 3.9472e-07 0 0 0 0 
9 3.30023e-05 1.88061e-05 0 -3.7831e-07 8.65819e-07 0 0 0 0 
10 3.98798e-05 1.36454e-05 0 2.54964e-07 -1.01994e-07 0 -4.70556e-16 -1.17936e-17 0 
5 4.77701e-05 1.38431e-05 0 6.62189e-08 3.78813e-07 0 4.70556e-16 1.17936e-17 0 
ITEM: TIMESTEP
35000
ITEM: NUMBER OF ATOMS
10
ITEM: BOX BOUNDS pp pp pp
0 5e-05
0 2e-05
-5e-06 5e-06
ITEM: ATOMS id x y z vx vy vz fx fy fz 
1 5.19923e-06 6.06018e-06 0 -7.11957e-08 -5.66658e-07 0 0 0 0 
8 2.17314e-05 4.45473e-07 0 -1.17248e-06 3.9472e-07 0 0 0 0 
6 4.09038e-05 4.25064e-06 0 4.91071e-08 -5.33209e-07 0 0 0 0 
3 1.64707e-05 9.81307e-06 0 9.54099e-07 3.4845e-07 0 0 0 0 
4 2.73404e-05 8.45609e-06 0 4.6574e-07 -5.92361e-07 0 0 0 0 
7 5.56219e-06 1.47985e-05 0 -1.52663e-07 -1.1337e-06 0 1.23464e-16 -2.18616e-16 0 