ITEM: TIMESTEP
0
ITEM: NUMBER OF ATOMS
10
ITEM: BOX BOUNDS pp pp pp
0 5e-05
0 2e-05
-5e-06 5e-06
ITEM: ATOMS id x y z vx vy vz fx fy fz 
1 0 0 0 -3.35171e-07 -1.20105e-06 0 0 0 0 
2 1e-05 0 0 2.30349e-06 -1.78293e-06 0 0 0 0 
3 2e-05 0 0 -1.01782e-06 1.32631e-06 0 0 0 0 
4 3e-05 0 0 1.94256e-06 2.70034e-06 0 0 0 0 
5 4e-05 0 0 2.01953e-06 -5.51273e-07 0 0 0 0 
6 0 1e-05 0 -2.31377e-06 -2.65066e-06 0 0 0 0 
7 1e-05 1e-05 0 2.89918e-06 8.14314e-07 0 0 0 0 
8 2e-05 1e-05 0 -1.82661e-06 2.64343e-06 0 0 0 0 
9 3e-05 1e-05 0 -2.99089e-06 -2.10679e-06 0 0 0 0 
10 4e-05 1e-05 0 -6.80493e-07 8.08311e-07 0 0 0 0 
ITEM: TIMESTEP
10000
ITEM: NUMBER OF ATOMS
10
ITEM: BOX BOUNDS pp pp pp
0 5e-05
0 2e-05
-5e-06 5e-06
ITEM: ATOMS id x y z vx vy vz fx fy fz 
3 1.90006e-05 1.33286e-06 0 -8.70172e-07 1.38315e-06 0 6.61751e-16 3.06772e-16 0 
4 3.19755e-05 2.6381e-06 0 2.11692e-06 2.4218e-06 0 5.55919e-16 -5.91287e-16 0 
7 1.26982e-05 1.07627e-05 0 1.56413e-06 3.57602e-07 0 -7.82144e-15 -3.3455e-15 0 
8 1.83749e-05 1.2686e-05 0 -4.85634e-07 2.99582e-06 0 7.8593e-15 2.66273e-15 0 
9 2.69762e-05 7.95545e-06 0 -3.16525e-06 -1.82825e-06 0 -5.55919e-16 5.91287e-16 0 
10 3.93195e-05 1.08083e-05 0 -6.80493e-07 8.08311e-07 0 0 0 0 
6 4.76862e-05 7.34934e-06 0 -2.31377e-06 -2.65066e-06 0 0 0 0 
2 1.22846e-05 1.82195e-05 0 2.14991e-06 -1.73545e-06 0 -6.99619e-16 3.75992e-16 0 
5 4.20171e-05 1.94489e-05 0 1.96883e-06 -5.47229e-07 0 -5.61766e-16 4.77423e-17 0 
1 4.96673e-05 1.87988e-05 0 -2.84466e-07 -1.2051e-06 0 5.61766e-16 -4.77423e-17 0 
ITEM: TIMESTEP
20000
ITEM: NUMBER OF ATOMS
10
ITEM: BOX BOUNDS pp pp pp
0 5e-05
0 2e-05
-5e-06 5e-06
ITEM: ATOMS id x y z vx vy vz fx fy fz 
3 1.84152e-05 3.04495e-06 0 -7.75749e-07 2.00155e-06 0 -3.54307e-15 -1.05314e-15 0 
9 2.37278e-05 6.28866e-06 0 -2.8467e-06 -1.36766e-06 0 3.67168e-15 2.24182e-15 0 
4 3.42375e-05 4.94067e-06 0 2.28984e-06 2.28252e-06 0 0 0 0 
6 4.54314e-05 4.8292e-06 0 -2.01859e-06 -1.93116e-06 0 1.11131e-15 3.22011e-15 0 
7 1.24701e-05 9.85108e-06 0 -6.25495e-07 -1.61504e-06 0 -1.12208e-16 -8.09531e-16 0 
10 3.8639e-05 1.16166e-05 0 -6.80493e-07 8.08311e-07 0 0 0 0 
2 1.34713e-05 1.70738e-05 0 -6.61715e-08 -4.99037e-07 0 -1.48857e-15 6.02936e-16 0 
8 2.02978e-05 1.59901e-05 0 3.33418e-06 2.79234e-06 0 1.47216e-15 -9.82083e-16 0 
5 4.33674e-05 1.88487e-05 0 2.96017e-07 -1.04655e-06 0 -2.78519e-15 -2.88086e-15 0 
1 4.99424e-05 1.75161e-05 0 1.09316e-06 -1.42528e-06 0 1.67387e-15 -3.39248e-16 0 
ITEM: TIMESTEP
30000
ITEM: NUMBER OF ATOMS
10
ITEM: BOX BOUNDS pp pp pp
0 5e-05
0 2e-05
-5e-06 5e-06
ITEM: ATOMS id x y z vx vy vz fx fy fz 
3 1.51364e-05 3.65129e-06 0 -2.60088e-06 -1.17827e-06 0 6.91577e-15 -7.95542e-15 0 
9 2.3676e-05 6.38752e-06 0 7.58889e-07 5.00947e-07 0 -1.53047e-17 4.88378e-16 0 
4 3.62734e-05 6.70374e-06 0 1.60915e-06 6.7778e-07 0 -1.35588e-15 -2.93424e-15 0 
6 4.3836e-05 4.43916e-06 0 -1.43855e-06 3.1645e-07 0 4.50333e-16 -1.34849e-16 0 
7 1.15379e-05 8.34647e-06 0 -2.33728e-06 1.76905e-07 0 -6.69348e-15 8.73334e-15 0 
10 3.80721e-05 1.28e-05 0 -8.37036e-07 1.64865e-06 0 -4.08061e-15 -7.43978e-16 0 
1 1.51234e-06 1.60013e-05 0 1.73994e-06 -1.54275e-06 0 0 0 0 
2 1.31303e-05 1.66309e-05 0 -4.7906e-07 -6.74433e-07 0 -2.22289e-16 -7.7791e-16 0 
8 2.39218e-05 1.85447e-05 0 3.67839e-06 2.48701e-06 0 1.53047e-17 -4.88378e-16 0 
5 4.29038e-05 1.6495e-05 0 -9.35754e-08 -2.41228e-06 0 4.98616e-15 3.81307e-15 0 
ITEM: TIMESTEP
40000
ITEM: NUMBER OF ATOMS
10
ITEM: BOX BOUNDS pp pp pp
0 5e-05
0 2e-05
-5e-06 5e-06
ITEM: ATOMS id x y z vx vy vz fx fy fz 
3 1.35693e-05 1.95696e-06 0 -1.24218e-06 -9.78637e-07 0 2.79584e-16 1.79496e-15 0 
8 2.76686e-05 6.73876e-07 0 3.88066e-06 1.7269e-06 0 3.43464e-16 -6.83606e-16 0 
4 3.70397e-05 6.52352e-06 0 -5.79937e-07 -2.77544e-07 0 -3.09754e-15 1.02434e-15 0 
6 4.30656e-05 4.53079e-06 0 5.65467e-07 -3.6079e-07 0 3.09754e-15 -1.02434e-15 0 
7 8.28114e-06 9.62283e-06 0 -3.47224e-06 1.15296e-06 0 2.72306e-16 -1.57172e-15 0 
9 2.43664e-05 7.24629e-06 0 5.56618e-07 1.26105e-06 0 -3.43464e-16 6.83606e-16 0 
1 3.24628e-06 1.44641e-05 0 1.65267e-06 -1.46127e-06 0 -8.39482e-16 8.072e-16 0 
2 1.25429e-05 1.53675e-05 0 -6.15513e-07 -1.9316e-06 0 2.87592e-16 -1.03044e-15 0 
10 3.54766e-05 1.43773e-05 0 -3.10819e-06 1.87607e-06 0 0 0 0 
5 4.47434e-05 1.52369e-05 0 2.36265e-06 -1.00714e-06 0 0 0 0 
ITEM: TIMESTEP
50000
ITEM: NUMBER OF ATOMS
10
ITEM: BOX BOUNDS pp pp pp
0 5e-05
0 2e-05
-5e-06 5e-06
ITEM: ATOMS id x y z vx vy vz fx fy fz 
3 1.2396e-05 1.52529e-06 0 -1.14962e-06 -1.86729e-07 0 0 0 0 
8 3.14872e-05 2.37157e-06 0 3.06285e-06 1.94027e-06 0 -6.09371e-15 -2.33857e-15 0 
4 3.58359e-05 6.52444e-06 0 -8.78965e-07 5.39358e-07 0 5.62706e-15 5.37363e-15 0 
6 4.43208e-05 3.94774e-06 0 1.45629e-06 -6.46442e-07 0 0 0 0 
7 6.8705e-06 7.62537e-06 0 -6.12532e-07 -3.59341e-06 0 -3.69709e-16 -3.90322e-16 0 
9 2.48316e-05 8.66403e-06 0 4.46541e-07 1.44759e-06 0 0 0 0 
1 2.75107e-06 1.58221e-05 0 -4.60448e-07 2.86296e-06 0 5.68067e-15 1.55478e-15 0 
2 1.2188e-05 1.32393e-05 0 -1.0349e-07 -2.09574e-06 0 3.69709e-16 3.90322e-16 0 
10 3.24561e-05 1.60696e-05 0 -2.7721e-06 9.44923e-07 0 4.66657e-16 -3.03507e-15 0 
5 4.68629e-05 1.42105e-05 0 1.01147e-06 -1.21278e-06 0 -5.68067e-15 -1.55478e-15 0 
ITEM: TIMESTEP
60000
ITEM: NUMBER OF ATOMS
10
ITEM: BOX BOUNDS pp pp pp
0 5e-05
0 2e-05
-5e-06 5e-06
ITEM: ATOMS id x y z vx vy vz fx fy fz 
7 5.92968e-06 4.3317e-06 0 -1.22431e-06 -1.83431e-06 0 6.70081e-15 1.99051e-14 0 
3 1.15717e-05 1.07327e-06 0 -9.89033e-08 -9.53214e-07 0 2.03619e-15 -1.17596e-15 0 
8 3.17582e-05 2.78393e-06 0 -1.29271e-07 7.6537e-07 0 1.98471e-16 6.74921e-16 0 
6 4.5777e-05 3.30129e-06 0 1.45629e-06 -6.46442e-07 0 0 0 0 
2 1.21208e-05 1.11823e-05 0 -6.50619e-08 -2.05479e-06 0 0 0 0 
9 2.52703e-05 1.0102e-05 0 3.5732e-07 1.33733e-06 0 -6.49412e-16 -8.20429e-16 0 
4 3.77811e-05 9.96886e-06 0 2.47027e-06 4.00461e-06 0 0 0 0 
1 3.48775e-06 1.90971e-05 0 5.66995e-07 2.4531e-06 0 -8.737e-15 -1.87291e-14 0 
10 2.96595e-05 1.5647e-05 0 -2.83999e-06 -1.23517e-06 0 4.50941e-16 1.45508e-16 0 
5 4.66439e-05 1.25126e-05 0 -4.93341e-07 -1.83648e-06 0 0 0 0 
ITEM: TIMESTEP
70000
ITEM: NUMBER OF ATOMS
10
ITEM: BOX BOUNDS pp pp pp
0 5e-05
0 2e-05
-5e-06 5e-06
ITEM: ATOMS id x y z vx vy vz fx fy fz 
7 6.26228e-06 7.50003e-06 0 -4.65077e-07 3.3044e-06 0 -3.88434e-15 -1.13043e-15 0 
3 1.19534e-05 -1.99301e-07 0 5.04646e-07 -1.36798e-06 0 0 0 0 
8 3.16559e-05 3.6348e-06 0 -9.98921e-08 8.58184e-07 0 0 0 0 
6 4.71842e-05 2.70022e-06 0 1.25926e-06 -4.48357e-07 0 -3.70102e-16 4.74893e-16 0 
2 1.22636e-05 9.24656e-06 0 1.01618e-06 -1.55062e-06 0 3.88434e-15 1.13043e-15 0 
9 2.42648e-05 9.49757e-06 0 -1.99656e-06 -2.08225e-06 0 -2.51172e-16 -4.37115e-16 0 
4 4.00749e-05 1.39979e-05 0 1.87525e-06 4.14664e-06 0 -9.01572e-16 4.82553e-16 0 
5 4.6327e-05 1.06516e-05 0 1.01674e-07 -1.97851e-06 0 9.01572e-16 -4.82553e-16 0 
1 1.85852e-06 1.67024e-05 0 -1.68e-06 -2.97311e-06 0 3.70102e-16 -4.74893e-16 0 
10 2.81553e-05 1.62681e-05 0 -5.15491e-07 2.0916e-06 0 2.51172e-16 4.37115e-16 0 
ITEM: TIMESTEP
80000
ITEM: NUMBER OF ATOMS
10
ITEM: BOX BOUNDS pp pp pp
0 5e-05
0 2e-05
-5e-06 5e-06
ITEM: ATOMS id x y z vx vy vz fx fy fz 
8 3.16252e-05 4.6176e-06 0 1.06542e-07 1.21694e-06 0 3.38887e-16 5.33395e-16 0 
6 4.84043e-05 2.09498e-06 0 1.35285e-06 -1.0431e-06 0 9.10423e-16 -1.02981e-15 0 
7 5.06645e-06 1.04801e-05 0 -2.30491e-07 1.94181e-06 0 8.33126e-15 -6.10812e-15 0 
2 1.41932e-05 7.83718e-06 0 2.15681e-06 -1.39801e-06 0 0 0 0 
9 2.22633e-05 7.40663e-06 0 -2.0016e-06 -2.09103e-06 0 0 0 0 
5 4.63547e-05 8.63691e-06 0 -4.47102e-07 -2.02093e-06 0 -1.54306e-15 -2.22161e-16 0 
1 2.82364e-07 1.39876e-05 0 -2.36413e-06 -1.24512e-06 0 -7.20101e-15 7.64786e-15 0 
3 1.2458e-05 1.84327e-05 0 5.04646e-07 -1.36798e-06 0 0 0 0 
10 2.75757e-05 1.82438e-05 0 -7.16888e-07 1.74162e-06 0 -3.38887e-16 -5.33395e-16 0 
4 4.17768e-05 1.82625e-05 0 1.63936e-06 4.26579e-06 0 -4.97618e-16 -2.87757e-16 0 
ITEM: TIMESTEP
90000
ITEM: NUMBER OF ATOMS
10
ITEM: BOX BOUNDS pp pp pp
0 5e-05
0 2e-05
-5e-06 5e-06
ITEM: ATOMS id x y z vx vy vz fx fy fz 
6 5.25709e-07 7.56698e-07 0 2.91824e-06 -1.38201e-06 0 3.18035e-16 5.658e-16 0 
9 2.15392e-05 5.13746e-06 0 1.58743e-06 -2.63019e-06 0 1.38829e-15 7.03242e-17 0 
8 3.18856e-05 6.05863e-06 0 3.44305e-07 1.55715e-06 0 0 0 0 
4 4.26558e-05 1.88669e-06 0 -2.03073e-06 -9.12742e-07 0 -6.55653e-15 -1.1703e-14 0 
7 6.29072e-06 1.15132e-05 0 1.48984e-06 8.90796e-07 0 0 0 0 
2 1.50709e-05 6.61911e-06 0 -1.46992e-06 -8.19154e-07 0 -1.86671e-15 4.27593e-16 0 
5 4.55234e-05 7.00511e-06 0 1.17651e-06 2.76584e-06 0 6.4127e-15 1.09168e-14 0 
3 1.29627e-05 1.70647e-05 0 5.04646e-07 -1.36798e-06 0 0 0 0 
10 2.67066e-05 1.97596e-05 0 -9.16952e-07 1.36172e-06 0 4.78429e-16 -4.97917e-16 0 
1 4.68395e-05 1.41988e-05 0 -3.60337e-06 5.36574e-07 0 -1.74205e-16 2.20312e-16 0 
ITEM: TIMESTEP
100000
ITEM: NUMBER OF ATOMS
10
ITEM: BOX BOUNDS pp pp pp
0 5e-05
0 2e-05
-5e-06 5e-06
ITEM: ATOMS id x y z vx vy vz fx fy fz 
6 3.49537e-06 -5.47478e-07 0 2.97475e-06 -1.29695e-06 0 0 0 0 
2 1.33197e-05 5.86954e-06 0 -1.79509e-06 -7.38212e-07 0 0 0 0 
9 2.14743e-05 4.21369e-06 0 -1.69824e-06 5.58514e-07 0 0 0 0 
10 2.77232e-05 -6.5474e-07 0 2.69389e-06 -1.90793e-06 0 0 0 0 
4 4.00579e-05 5.1382e-07 0 -3.44664e-06 -9.63513e-08 0 -5.81933e-15 9.25376e-15 0 
7 7.66063e-06 1.23218e-05 0 1.02797e-06 5.89326e-07 0 -1.18336e-15 -6.90272e-16 0 
8 3.22299e-05 7.61578e-06 0 3.44305e-07 1.55715e-06 0 0 0 0 
5 4.72438e-05 9.38396e-06 0 2.05412e-06 1.40947e-06 0 4.31572e-16 -6.5451e-16 0 
3 1.35872e-05 1.57789e-05 0 9.66515e-07 -1.06651e-06 0 1.18336e-15 6.90272e-16 0 
1 4.32079e-05 1.55047e-05 0 -3.12158e-06 9.91491e-07 0 5.38776e-15 -8.59925e-15 0 
ITEM: TIMESTEP
110000
ITEM: NUMBER OF ATOMS
10
ITEM: BOX BOUNDS pp pp pp
0 5e-05
0 2e-05
-5e-06 5e-06
ITEM: ATOMS id x y z vx vy vz fx fy fz 
2 1.15247e-05 5.13103e-06 0 -1.78744e-06 -7.5442e-07 0 2.04771e-16 -4.38806e-16 0 
9 1.97761e-05 4.77221e-06 0 -1.69824e-06 5.58514e-07 0 0 0 0 
4 3.54511e-05 2.22507e-06 0 -4.66763e-06 2.09449e-06 0 1.1097e-15 2.20732e-16 0 
7 8.20189e-06 1.22516e-05 0 3.18713e-07 -1.0299e-06 0 -1.27325e-16 -2.03768e-15 0 
8 3.25718e-05 9.1779e-06 0 3.10676e-07 1.63006e-06 0 -2.47734e-16 5.98233e-16 0 
5 4.94003e-05 1.06634e-05 0 2.17575e-06 1.2569e-06 0 0 0 0 
6 6.31398e-06 1.84908e-05 0 2.52663e-06 -2.12816e-07 0 -6.771e-16 2.23768e-15 0 
3 1.51965e-05 1.5037e-05 0 2.11625e-06 -5.15213e-07 0 5.99654e-16 2.38798e-16 0 
10 3.03992e-05 1.74252e-05 0 2.53398e-06 -2.02793e-06 0 -8.61965e-16 -8.18965e-16 0 
1 4.11645e-05 1.48258e-05 0 -1.82868e-06 -9.99691e-07 0 0 0 0 
ITEM: TIMESTEP
120000
ITEM: NUMBER OF ATOMS
10
ITEM: BOX BOUNDS pp pp pp
0 5e-05
0 2e-05
-5e-06 5e-06
ITEM: ATOMS id x y z vx vy vz fx fy fz 
2 1.00818e-05 4.47796e-06 0 -7.21761e-07 2.05695e-07 0 2.03234e-15 2.99666e-15 0 
9 1.80778e-05 5.33072e-06 0 -1.69824e-06 5.58514e-07 0 0 0 0 
4 3.11389e-05 4.17301e-06 0 -4.47724e-06 7.52626e-07 0 -2.62611e-15 -7.03011e-15 0 
5 1.49373e-06 1.19231e-05 0 1.81399e-06 1.28248e-06 0 -9.53683e-16 1.52857e-16 0 
7 8.54397e-06 1.07931e-05 0 4.80892e-07 -1.28669e-06 0 3.86422e-16 1.67896e-15 0 
8 3.30602e-05 9.86381e-06 0 1.15327e-06 -1.46576e-06 0 2.14276e-15 5.319e-15 0 
6 8.46801e-06 1.85679e-05 0 1.56505e-06 -9.79631e-07 0 -1.46508e-15 -4.82847e-15 0 
3 1.73998e-05 1.45564e-05 0 2.21171e-06 -4.77297e-07 0 0 0 0 
10 3.2376e-05 1.64844e-05 0 1.27078e-06 2.37984e-06 0 -7.46384e-16 1.58037e-15 0 
1 3.93598e-05 1.38297e-05 0 -1.59846e-06 -9.69769e-07 0 1.22973e-15 1.30747e-16 0 
ITEM: TIMESTEP
130000
ITEM: NUMBER OF ATOMS
10
ITEM: BOX BOUNDS pp pp pp
0 5e-05
0 2e-05
-5e-06 5e-06
ITEM: ATOMS id x y z vx vy vz fx fy fz 
2 9.8002e-06 3.87097e-06 0 -3.58083e-07 -1.45621e-06 0 -8.49229e-16 -2.8494e-16 0 
9 1.66203e-05 5.92683e-06 0 -1.06519e-06 6.80683e-07 0 9.43054e-16 2.84274e-16 0 
4 2.58972e-05 3.81746e-06 0 -5.46582e-06 -4.85788e-07 0 0 0 0 
5 2.7084e-06 1.33653e-05 0 5.32231e-07 1.65228e-06 0 -1.61567e-15 2.47511e-16 0 
7 9.17033e-06 1.09029e-05 0 8.82864e-07 -4.57732e-07 0 1.5291e-17 -9.43243e-15 0 
8 3.4072e-05 8.80936e-06 0 -5.49951e-08 -1.89238e-06 0 -1.44911e-15 -1.34191e-15 0 
1 3.8927e-05 1.33052e-05 0 1.02802e-06 3.22607e-07 0 1.44911e-15 1.34191e-15 0 
6 9.80602e-06 1.68071e-05 0 1.44812e-06 -6.38654e-07 0 1.50656e-15 9.18558e-15 0 
3 1.96115e-05 1.40791e-05 0 2.21171e-06 -4.77297e-07 0 0 0 0 
10 3.3387e-05 1.91158e-05 0 8.41147e-07 2.7525e-06 0 0 0 0 
ITEM: TIMESTEP
140000
ITEM: NUMBER OF ATOMS
10
ITEM: BOX BOUNDS pp pp pp
0 5e-05
0 2e-05
-5e-06 5e-06
ITEM: ATOMS id x y z vx vy vz fx fy fz 
2 8.84725e-06 2.8604e-06 0 -1.73626e-06 -5.2269e-07 0 -1.302e-15 -1.38101e-15 0 
9 1.58676e-05 6.80028e-06 0 -1.06317e-06 1.4319e-06 0 -3.88034e-15 3.94328e-15 0 
4 2.06595e-05 3.21361e-06 0 -4.11173e-06 -1.30752e-06 0 6.83046e-15 -5.11252e-15 0 
10 3.4246e-05 1.30993e-06 0 1.03405e-06 -9.60807e-07 0 8.98528e-16 -1.03335e-14 0 
7 9.95501e-06 9.14366e-06 0 2.92407e-07 -1.08547e-06 0 -2.52709e-15 3.70946e-15 0 
8 3.37322e-05 7.21867e-06 0 -5.691e-07 1.51081e-06 0 -8.98528e-16 1.03335e-14 0 
5 2.91938e-06 1.51308e-05 0 1.40931e-07 1.79954e-06 0 0 0 0 
6 1.17279e-05 1.68364e-05 0 2.45194e-06 -1.02119e-06 0 8.78959e-16 -1.15921e-15 0 
3 2.18232e-05 1.36018e-05 0 2.21171e-06 -4.77297e-07 0 0 0 0 
1 4.02221e-05 1.38845e-05 0 1.34922e-06 6.32717e-07 0 0 0 0 
ITEM: TIMESTEP
150000
ITEM: NUMBER OF ATOMS
10
ITEM: BOX BOUNDS pp pp pp
0 5e-05
0 2e-05
-5e-06 5e-06
ITEM: ATOMS id x y z vx vy vz fx fy fz 
2 6.79013e-06 1.75019e-06 0 -1.80843e-06 -9.83762e-07 0 2.7653e-15 3.57412e-15 0 
4 1.81159e-05 4.93153e-07 0 -1.89411e-06 -2.82993e-06 0 2.26252e-15 2.96999e-15 0 
7 7.79019e-06 9.84294e-06 0 -3.29364e-06 1.4433e-06 0 0 0 0 
9 1.59539e-05 8.85693e-06 0 9.97629e-07 2.00966e-06 0 3.40728e-16 -1.37325e-15 0 
3 2.40349e-05 1.31245e-05 0 2.21171e-06 -4.77297e-07 0 0 0 0 
8 3.30535e-05 9.73722e-06 0 -6.96004e-07 2.65111e-06 0 0 0 0 
5 2.9934e-06 1.68429e-05 0 -3.06693e-07 1.21722e-06 0 -2.7653e-15 -3.57412e-15 0 
6 1.43072e-05 1.54935e-05 0 2.27936e-06 -1.56191e-06 0 -2.60325e-15 -1.59674e-15 0 
10 3.53893e-05 1.93416e-05 0 1.14667e-06 -2.08984e-06 0 -3.86699e-16 3.01779e-16 0 
1 4.15715e-05 1.4517e-05 0 1.3635e-06 6.2145e-07 0 3.86699e-16 -3.01779e-16 0 
ITEM: TIMESTEP
160000
ITEM: NUMBER OF ATOMS
10
ITEM: BOX BOUNDS pp pp pp
0 5e-05
0 2e-05
-5e-06 5e-06
ITEM: ATOMS id x y z vx vy vz fx fy fz 
2 6.56251e-06 2.78491e-06 0 2.89083e-07 1.6877e-06 0 0 0 0 
4 1.81729e-05 6.66537e-07 0 9.27195e-07 1.2422e-06 0 4.13348e-16 -2.10474e-15 0 
7 4.63531e-06 1.10702e-05 0 -2.71981e-06 5.78645e-07 0 1.85803e-15 -2.62762e-15 0 
9 1.80696e-05 7.12952e-06 0 2.73816e-06 -3.40928e-06 0 -4.13172e-17 2.5843e-15 0 
3 2.61153e-05 1.26693e-05 0 1.48528e-06 -3.83961e-07 0 -3.32433e-15 2.04636e-16 0 
8 3.24404e-05 1.228e-05 0 -2.6154e-07 2.08687e-06 0 1.89227e-15 -2.1475e-15 0 
5 9.67162e-07 1.62577e-05 0 -2.97363e-06 -5.88857e-07 0 -1.37848e-15 2.70775e-15 0 
6 1.35174e-05 1.46654e-05 0 -2.28247e-06 -2.15095e-07 0 -3.72031e-16 -4.79568e-16 0 
10 3.62976e-05 1.75129e-05 0 8.04127e-07 -1.27631e-06 0 7.30926e-16 2.20101e-15 0 
1 4.32218e-05 1.49636e-05 0 1.99362e-06 2.78088e-07 0 2.21581e-16 -3.38273e-16 0 
ITEM: TIMESTEP
170000
ITEM: NUMBER OF ATOMS
10
ITEM: BOX BOUNDS pp pp pp
0 5e-05
0 2e-05
-5e-06 5e-06
ITEM: ATOMS id x y z vx vy vz fx fy fz 
2 6.87003e-06 4.43898e-06 0 3.98831e-07 1.49927e-06 0 3.93397e-16 -5.7873e-16 0 
7 2.68494e-06 1.05957e-05 0 -1.60117e-06 -1.01894e-06 0 -1.10777e-16 -1.90509e-16 0 
9 2.09803e-05 7.41439e-06 0 2.83646e-06 1.30392e-06 0 -1.25743e-15 -1.33607e-15 0 
3 2.55466e-05 1.22662e-05 0 -1.57058e-06 -3.07094e-07 0 4.88251e-16 1.27139e-15 0 
8 3.28674e-05 1.28818e-05 0 6.09009e-07 -3.28545e-07 0 1.42752e-16 -5.55279e-16 0 
5 1.71152e-07 1.74378e-05 0 1.51459e-06 2.56016e-06 0 -2.8262e-16 7.69239e-16 0 
6 1.12035e-05 1.44106e-05 0 -2.31552e-06 -2.56782e-07 0 0 0 0 
4 1.89391e-05 1.8235e-05 0 6.79158e-07 -3.61223e-06 0 0 0 0 
10 3.80003e-05 1.79618e-05 0 1.1874e-06 2.33403e-06 0 -7.02145e-15 6.43959e-15 0 
1 4.27367e-05 1.43577e-05 0 -1.73818e-06 -2.17379e-06 0 7.64788e-15 -5.81963e-15 0 
ITEM: TIMESTEP
180000
ITEM: NUMBER OF ATOMS
10
ITEM: BOX BOUNDS pp pp pp
0 5e-05
0 2e-05
-5e-06 5e-06
ITEM: ATOMS id x y z vx vy vz fx fy fz 
2 7.53199e-06 5.64931e-06 0 9.28494e-07 9.84986e-07 0 4.23092e-16 -2.59419e-16 0 
10 3.82889e-05 1.35054e-06 0 1.61826e-07 3.56424e-06 0 0 0 0 
7 8.58822e-07 9.74097e-06 0 -2.08851e-06 -6.44242e-07 0 -4.23092e-16 2.59419e-16 0 
9 2.20364e-05 6.37034e-06 0 2.88966e-07 -2.14184e-06 0 0 0 0 
3 2.58946e-05 1.41458e-05 0 1.83063e-06 2.72304e-06 0 1.49634e-15 -8.14124e-17 0 
8 3.35364e-05 1.24494e-05 0 7.67844e-07 -4.62603e-07 0 4.84412e-16 -1.07536e-16 0 
1 4.20054e-05 1.12435e-05 0 -5.8952e-07 -3.27332e-06 0 0 0 0 
5 1.64755e-06 2.01227e-05 0 1.47226e-06 2.69974e-06 0 0 0 0 
6 8.88797e-06 1.41538e-05 0 -2.31552e-06 -2.56782e-07 0 0 0 0 
4 1.9312e-05 1.47737e-05 0 -4.5648e-07 -3.19322e-06 0 -1.98075e-15 1.88948e-16 0 
ITEM: TIMESTEP
190000
ITEM: NUMBER OF ATOMS
10
ITEM: BOX BOUNDS pp pp pp
0 5e-05
0 2e-05
-5e-06 5e-06
ITEM: ATOMS id x y z vx vy vz fx fy fz 
5 2.92112e-06 2.64134e-06 0 9.85409e-07 2.17122e-06 0 -5.59309e-16 -1.08232e-15 0 
2 8.68974e-06 6.7207e-06 0 1.53383e-06 1.11105e-06 0 1.03819e-15 5.21456e-18 0 
9 2.23253e-05 4.2285e-06 0 2.88966e-07 -2.14184e-06 0 0 0 0 
10 3.78504e-05 4.02989e-06 0 -3.16199e-06 -1.12371e-06 0 -2.12422e-15 -2.4843e-15 0 
7 -1.20992e-06 9.11876e-06 0 -1.88589e-06 -5.24084e-07 0 1.14602e-15 5.29765e-16 0 
8 3.45081e-05 1.19164e-05 0 1.05856e-06 -5.69357e-07 0 0 0 0 
1 4.19745e-05 8.85307e-06 0 2.46049e-06 1.40062e-06 0 6.76333e-16 2.42785e-15 0 
6 6.56391e-06 1.39716e-05 0 -2.36281e-06 3.95376e-08 0 -1.77016e-16 6.03778e-16 0 
4 1.84895e-05 1.15711e-05 0 -8.89554e-07 -3.20947e-06 0 0 0 0 
3 2.78874e-05 1.69485e-05 0 1.97299e-06 2.84604e-06 0 0 0 0 
ITEM: TIMESTEP
200000
ITEM: NUMBER OF ATOMS
10
ITEM: BOX BOUNDS pp pp pp
0 5e-05
0 2e-05
-5e-06 5e-06
ITEM: ATOMS id x y z vx vy vz fx fy fz 
5 3.83151e-06 4.1773e-06 0 1.39552e-06 4.58101e-07 0 2.87253e-15 -3.94335e-15 0 
9 2.25699e-05 2.11107e-06 0 7.38692e-08 -2.03683e-06 0 -5.61745e-16 1.87001e-16 0 
10 3.45883e-05 2.75006e-06 0 -1.77337e-06 -3.31418e-07 0 3.3022e-14 2.10214e-14 0 
2 1.06735e-05 7.89813e-06 0 2.1465e-06 1.29058e-06 0 -7.43088e-16 1.64776e-16 0 
4 1.76215e-05 8.36508e-06 0 -6.92983e-07 -3.18385e-06 0 1.19359e-15 8.02156e-17 0 
8 3.54102e-05 1.13803e-05 0 2.31084e-07 -4.22684e-07 0 -3.76063e-15 4.50666e-16 0 
1 4.16444e-05 1.06332e-05 0 -1.23106e-06 1.83508e-06 0 3.76063e-15 -4.50666e-16 0 
7 4.97098e-05 8.76459e-06 0 1.57565e-06 2.45956e-07 0 -4.01746e-15 2.84537e-15 0 
6 4.14858e-06 1.42169e-05 0 -2.30139e-06 4.41235e-07 0 6.94428e-16 8.52988e-16 0 
3 2.98024e-05 1.97034e-05 0 5.76171e-07 1.70383e-06 0 -3.24603e-14 -2.12084e-14 0 
ITEM: TIMESTEP
210000
ITEM: NUMBER OF ATOMS
10
ITEM: BOX BOUNDS pp pp pp
0 5e-05
0 2e-05
-5e-06 5e-06
ITEM: ATOMS id x y z vx vy vz fx fy fz 
5 6.10348e-06 3.59799e-06 0 2.59066e-06 -9.20289e-07 0 0 0 0 
4 1.79793e-05 5.18904e-06 0 6.41472e-07 -2.66716e-06 0 -4.20295e-15 6.38581e-15 0 
9 2.14154e-05 2.73216e-07 0 -2.83712e-06 -1.96864e-06 0 2.92141e-15 -6.22209e-15 0 
10 3.67925e-05 4.75096e-06 0 2.58746e-06 1.78921e-06 0 4.32588e-16 -9.58019e-16 0 
7 -2.11038e-07 9.08298e-06 0 -7.49839e-07 -3.25443e-07 0 -4.14207e-16 -1.02524e-15 0 
2 1.16321e-05 9.42602e-06 0 6.1628e-08 1.8238e-06 0 -4.88554e-16 3.26124e-16 0 
8 3.38837e-05 1.11928e-05 0 -2.30781e-06 1.90015e-07 0 -4.32588e-16 9.58019e-16 0 
1 4.21475e-05 1.23928e-05 0 1.18352e-06 1.77022e-06 0 0 0 0 
6 2.42102e-06 1.55978e-05 0 -1.21995e-06 2.36417e-06 0 4.14207e-16 1.02524e-15 0 
3 2.78361e-05 1.84964e-05 0 4.99718e-08 -2.05588e-06 0 1.77009e-15 -4.89842e-16 0 
ITEM: TIMESTEP
220000
ITEM: NUMBER OF ATOMS
10
ITEM: BOX BOUNDS pp pp pp
0 5e-05
0 2e-05
-5e-06 5e-06
ITEM: ATOMS id x y z vx vy vz fx fy fz 
5 8.69414e-06 2.6777e-06 0 2.59066e-06 -9.20289e-07 0 0 0 0 
4 1.71189e-05 5.04457e-06 0 -1.15259e-06 3.98414e-07 0 0 0 0 
10 3.95294e-05 6.29653e-06 0 2.77938e-06 1.48628e-06 0 0 0 0 
2 1.16515e-05 1.12793e-05 0 1.71656e-08 1.85486e-06 0 0 0 0 
8 3.15412e-05 1.14688e-05 0 -1.79958e-06 -5.05664e-07 0 3.88402e-15 -5.85169e-15 0 
7 4.89663e-05 8.56319e-06 0 -8.34313e-07 -5.52105e-07 0 0 0 0 
6 1.27392e-06 1.81563e-05 0 -1.13548e-06 2.59083e-06 0 0 0 0 
9 1.96957e-05 1.58451e-05 0 -1.58367e-06 -4.94861e-06 0 0 0 0 
3 2.81981e-05 1.65056e-05 0 -6.50931e-08 -1.17392e-06 0 -3.88402e-15 5.85169e-15 0 
1 4.3331e-05 1.4163e-05 0 1.18352e-06 1.77022e-06 0 0 0 0 
ITEM: TIMESTEP
230000
ITEM: NUMBER OF ATOMS
10
ITEM: BOX BOUNDS pp pp pp
0 5e-05
0 2e-05
-5e-06 5e-06
ITEM: ATOMS id x y z vx vy vz fx fy fz 
6 1.69254e-07 7.65676e-07 0 -9.49911e-07 2.65598e-06 0 6.81246e-16 -1.97396e-16 0 
5 1.1049e-05 1.63608e-06 0 1.70552e-06 -1.44392e-06 0 -2.33771e-15 -1.75179e-15 0 
4 1.61711e-05 5.47438e-06 0 -5.86085e-07 4.90405e-08 0 -1.41385e-15 -7.85053e-15 0 
2 1.14816e-05 1.31203e-05 0 -6.0416e-07 1.87146e-06 0 -8.92816e-16 2.76381e-16 0 
9 1.833e-05 1.10003e-05 0 -6.43702e-07 -4.09221e-06 0 4.64438e-15 9.32594e-15 0 
8 3.08829e-05 9.1259e-06 0 -3.78731e-07 -2.81963e-06 0 0 0 0 
10 4.21479e-05 7.76428e-06 0 1.81047e-06 1.40187e-06 0 -5.19709e-15 -2.27626e-16 0 
7 4.82918e-05 8.03338e-06 0 1.17602e-07 -4.02166e-07 0 5.03218e-15 8.65991e-16 0 
3 2.69918e-05 1.71689e-05 0 -1.48595e-06 1.14004e-06 0 0 0 0 
1 4.44847e-05 1.59109e-05 0 1.01494e-06 1.63953e-06 0 -5.16342e-16 -4.40969e-16 0 
ITEM: TIMESTEP
240000
ITEM: NUMBER OF ATOMS
10
ITEM: BOX BOUNDS pp pp pp
0 5e-05
0 2e-05
-5e-06 5e-06
ITEM: ATOMS id x y z vx vy vz fx fy fz 
4 1.64907e-05 3.58377e-06 0 1.41774e-06 -1.53074e-06 0 7.1156e-16 3.75945e-16 0 
6 4.97075e-05 2.22564e-06 0 3.91545e-08 -1.13071e-07 0 1.02829e-15 -1.53249e-17 0 
9 1.96326e-05 1.10243e-05 0 1.70267e-06 8.56926e-07 0 0 0 0 
8 3.05041e-05 6.30627e-06 0 -3.78731e-07 -2.81963e-06 0 0 0 0 
10 4.18816e-05 9.18036e-06 0 -9.47513e-07 1.44121e-06 0 0 0 0 
7 5.02967e-05 9.11473e-06 0 2.56762e-06 3.04973e-06 0 1.08721e-16 1.27102e-15 0 
5 1.00305e-05 2.01706e-05 0 -2.60319e-06 1.58e-06 0 -7.85164e-16 3.74921e-16 0 
2 1.07494e-05 1.28367e-05 0 -6.45643e-07 -4.52182e-06 0 7.36046e-17 -7.50866e-16 0 
3 2.55058e-05 1.83089e-05 0 -1.48595e-06 1.14004e-06 0 0 0 0 
1 4.52009e-05 1.72487e-05 0 3.33846e-07 9.17348e-07 0 -1.13701e-15 -1.2557e-15 0 
ITEM: TIMESTEP
250000
ITEM: NUMBER OF ATOMS
10
ITEM: BOX BOUNDS pp pp pp
0 5e-05
0 2e-05
-5e-06 5e-06
ITEM: ATOMS id x y z vx vy vz fx fy fz 
6 3.43391e-07 2.58955e-06 0 9.61933e-07 8.36101e-07 0 -5.89351e-16 6.0784e-16 0 
5 7.3189e-06 1.73581e-06 0 -2.61208e-06 1.44663e-06 0 7.03122e-16 -1.05414e-15 0 
4 1.79854e-05 2.12576e-06 0 1.24414e-06 -1.32782e-06 0 -1.76113e-15 7.92092e-16 0 
8 3.01531e-05 3.51007e-06 0 -2.07223e-07 -2.68345e-06 0 6.26553e-16 4.20144e-16 0 
7 2.88697e-06 1.23564e-05 0 2.59367e-06 3.2672e-06 0 0 0 0 
2 1.01114e-05 8.27438e-06 0 -6.01106e-07 -4.46854e-06 0 3.92915e-16 9.19994e-16 0 
9 2.13353e-05 1.18812e-05 0 1.70267e-06 8.56926e-07 0 0 0 0 
10 4.09341e-05 1.06216e-05 0 -9.47513e-07 1.44121e-06 0 0 0 0 
3 2.40327e-05 1.94059e-05 0 -1.35236e-06 8.59968e-07 0 1.13458e-15 -1.21224e-15 0 
1 4.48987e-05 1.74994e-05 0 -7.82136e-07 -2.28235e-07 0 -5.06686e-16 -4.73694e-16 0 
ITEM: TIMESTEP
260000
ITEM: NUMBER OF ATOMS
10
ITEM: BOX BOUNDS pp pp pp
0 5e-05
0 2e-05
-5e-06 5e-06
ITEM: ATOMS id x y z vx vy vz fx fy fz 
6 -1.20286e-06 3.9478e-06 0 -3.65007e-06 1.82821e-06 0 -5.65959e-16 2.42665e-16 0 
5 5.76326e-06 9.6096e-07 0 -3.65406e-07 1.63078e-06 0 1.88456e-15 3.28821e-14 0 
4 1.70101e-05 1.67752e-06 0 -2.20697e-06 -1.37024e-08 0 1.48374e-16 -3.14091e-16 0 
8 3.05182e-05 1.08705e-06 0 1.41324e-06 -2.05569e-06 0 3.05447e-15 8.56425e-16 0 
2 1.1083e-05 5.9345e-06 0 2.21836e-06 -7.18163e-07 0 -5.69754e-17 1.03761e-15 0 
9 2.29763e-05 1.24906e-05 0 1.55325e-06 2.17413e-07 0 -2.23902e-16 -1.08635e-15 0 
10 3.98155e-05 1.17989e-05 0 -1.36145e-06 8.34659e-07 0 -5.78683e-16 -7.46208e-16 0 
7 5.43899e-06 1.52758e-05 0 2.1589e-06 -1.52024e-06 0 -1.9215e-15 -3.36885e-14 0 
3 2.43942e-05 1.937e-05 0 7.02608e-07 -4.94263e-07 0 -2.31906e-15 7.00744e-17 0 
1 4.42033e-05 1.74569e-05 0 -4.62463e-07 2.91005e-07 0 5.78683e-16 7.46208e-16 0 
ITEM: TIMESTEP
270000
ITEM: NUMBER OF ATOMS
10
ITEM: BOX BOUNDS pp pp pp
0 5e-05
0 2e-05
-5e-06 5e-06
ITEM: ATOMS id x y z vx vy vz fx fy fz 
5 5.16267e-06 4.03326e-06 0 -9.22242e-07 3.03585e-06 0 -5.4287e-16 -2.08238e-16 0 
2 1.22986e-05 6.77052e-06 0 4.25109e-07 2.25179e-06 0 8.56473e-16 5.36404e-17 0 
4 1.61229e-05 3.36177e-07 0 2.87698e-07 -2.66935e-06 0 3.43757e-16 -5.78368e-16 0 
6 4.51719e-05 5.95509e-06 0 -3.58508e-06 2.10911e-06 0 0 0 0 
7 7.54239e-06 1.20738e-05 0 2.04298e-06 -3.25433e-06 0 -6.5736e-16 7.32966e-16 0 
9 2.44342e-05 1.20509e-05 0 1.41088e-06 -1.04585e-06 0 1.11579e-17 -8.24467e-16 0 
10 3.81962e-05 1.23287e-05 0 -1.80986e-06 3.22204e-07 0 0 0 0 
3 2.43356e-05 1.93337e-05 0 -3.50412e-07 5.18133e-07 0 -1.11579e-17 8.24467e-16 0 
8 3.28148e-05 1.92222e-05 0 2.63613e-06 -1.81337e-06 0 0 0 0 
1 4.39208e-05 1.78957e-05 0 -1.35207e-07 5.45816e-07 0 0 0 0 
ITEM: TIMESTEP
280000
ITEM: NUMBER OF ATOMS
10
ITEM: BOX BOUNDS pp pp pp
0 5e-05
0 2e-05
-5e-06 5e-06
ITEM: ATOMS id x y z vx vy vz fx fy fz 
5 3.72684e-06 6.35835e-06 0 -2.39735e-06 9.55645e-07 0 -1.73115e-15 -2.22224e-15 0 
7 7.67161e-06 1.14222e-05 0 -3.08522e-07 1.77961e-06 0 1.73115e-15 2.22224e-15 0 
2 1.51247e-05 7.17623e-06 0 4.22414e-06 -6.53803e-07 0 0 0 0 
9 2.5853e-05 1.08292e-05 0 1.42068e-06 -1.25239e-06 0 0 0 0 
6 4.16359e-05 8.02164e-06 0 -3.2398e-06 1.81691e-06 0 2.2655e-15 -1.818e-15 0 
10 3.66416e-05 1.20294e-05 0 -1.09232e-06 -2.09921e-06 0 -1.23514e-15 -2.3469e-15 0 
4 1.63933e-05 1.76144e-05 0 1.87869e-07 -2.73766e-06 0 0 0 0 
3 2.40209e-05 2.00342e-05 0 -2.32794e-07 7.44831e-07 0 0 0 0 
8 3.51465e-05 1.80729e-05 0 1.57331e-06 9.0025e-07 0 -1.03036e-15 4.1649e-15 0 
1 4.37856e-05 1.84415e-05 0 -1.35207e-07 5.45816e-07 0 0 0 0 
ITEM: TIMESTEP
290000
ITEM: NUMBER OF ATOMS
10
ITEM: BOX BOUNDS pp pp pp
0 5e-05
0 2e-05
-5e-06 5e-06
ITEM: ATOMS id x y z vx vy vz fx fy fz 
3 2.3793e-05 7.73186e-07 0 -1.67809e-07 6.65108e-07 0 5.09276e-16 -6.58792e-16 0 
5 9.93466e-07 6.90513e-06 0 -2.81183e-06 4.55103e-07 0 0 0 0 
7 7.69911e-06 1.36106e-05 0 1.05954e-07 2.28015e-06 0 0 0 0 
2 1.9344e-05 6.52829e-06 0 4.15916e-06 -5.7408e-07 0 -5.09276e-16 6.58792e-16 0 
9 2.718e-05 9.55524e-06 0 3.84024e-07 -1.524e-06 0 -1.32072e-14 -3.95237e-15 0 
10 3.27946e-05 1.12355e-05 0 -3.87299e-06 -1.26338e-07 0 1.32072e-14 3.95237e-15 0 
6 4.13444e-05 7.82301e-06 0 6.78946e-07 -8.18054e-07 0 0 0 0 
4 1.65812e-05 1.48767e-05 0 1.87869e-07 -2.73766e-06 0 0 0 0 
8 3.65331e-05 1.97082e-05 0 1.11539e-06 1.85358e-06 0 -8.59302e-16 8.63743e-17 0 
1 4.37372e-05 1.89841e-05 0 2.21296e-07 5.26189e-07 0 8.59302e-16 -8.63743e-17 0 
ITEM: TIMESTEP
300000
ITEM: NUMBER OF ATOMS
10
ITEM: BOX BOUNDS pp pp pp
0 5e-05
0 2e-05
-5e-06 5e-06
ITEM: ATOMS id x y z vx vy vz fx fy fz 
2 1.84913e-05 5.28271e-06 0 -4.80452e-06 -1.82702e-06 0 -1.84425e-16 -6.1008e-16 0 
3 2.43192e-05 2.94799e-07 0 1.18496e-06 -1.4668e-06 0 4.30906e-16 -3.68802e-16 0 
8 3.71649e-05 1.61191e-06 0 1.03221e-07 1.85138e-06 0 -1.17533e-15 -4.85525e-16 0 
4 1.67571e-05 1.217e-05 0 1.12241e-07 -2.51919e-06 0 -2.46482e-16 9.78883e-16 0 
9 2.78464e-05 8.35883e-06 0 3.05537e-06 -3.32314e-07 0 -1.49738e-15 -1.22966e-15 0 
10 3.29691e-05 1.25656e-05 0 1.1422e-06 1.84835e-06 0 1.49738e-15 1.22966e-15 0 
6 4.19344e-05 7.03181e-06 0 1.78397e-07 -6.57695e-07 0 -2.54612e-15 5.01457e-16 0 
5 4.8292e-05 7.36037e-06 0 -2.16996e-06 4.6779e-07 0 3.12973e-15 1.61746e-16 0 
7 7.80506e-06 1.58908e-05 0 1.05954e-07 2.28015e-06 0 0 0 0 
1 4.44207e-05 1.94332e-05 0 1.09214e-06 3.55345e-07 0 5.91718e-16 -1.77678e-16 0 
ITEM: TIMESTEP
310000
ITEM: NUMBER OF ATOMS
10
ITEM: BOX BOUNDS pp pp pp
0 5e-05
0 2e-05
-5e-06 5e-06
ITEM: ATOMS id x y z vx vy vz fx fy fz 
2 1.36878e-05 2.85419e-06 0 -4.83406e-06 -2.83701e-06 0 5.47135e-16 4.43562e-16 0 
8 3.62248e-05 2.54815e-06 0 -2.39465e-06 -5.0391e-07 0 -9.83751e-16 -1.37179e-15 0 
4 1.6849e-05 1.02698e-05 0 1.50165e-07 -1.46816e-06 0 0 0 0 
9 3.04279e-05 7.55008e-06 0 2.36633e-06 -1.01863e-06 0 -4.34897e-16 3.75258e-16 0 
6 4.09373e-05 7.13123e-06 0 -6.37619e-07 1.4023e-06 0 7.63111e-16 1.38629e-15 0 
5 4.82367e-05 8.03705e-06 0 1.05166e-06 8.12977e-07 0 7.59221e-16 9.42163e-17 0 
7 7.91013e-06 1.81702e-05 0 7.68366e-08 2.25638e-06 0 -5.47135e-16 -4.43562e-16 0 
3 2.55243e-05 1.88112e-05 0 1.20569e-06 -1.48407e-06 0 0 0 0 
10 3.45843e-05 1.48909e-05 0 1.80526e-06 2.54669e-06 0 -1.03685e-16 -4.83975e-16 0 
1 4.56177e-05 1.97371e-05 0 1.21038e-06 2.93438e-07 0 0 0 0 
ITEM: TIMESTEP
320000
ITEM: NUMBER OF ATOMS
10
ITEM: BOX BOUNDS pp pp pp
0 5e-05
0 2e-05
-5e-06 5e-06
ITEM: ATOMS id x y z vx vy vz fx fy fz 
2 1.27231e-05 2.84894e-06 0 7.48287e-07 1.18821e-06 0 -4.52096e-16 -6.29412e-16 0 
8 3.43515e-05 1.96716e-06 0 -1.11649e-06 -1.65161e-07 0 2.08303e-16 -1.07799e-16 0 
4 1.70068e-05 8.81272e-06 0 2.26306e-07 -1.35898e-06 0 4.52096e-16 6.29412e-16 0 
9 3.18532e-05 7.8601e-06 0 5.47781e-08 2.66013e-06 0 -1.14025e-15 2.68965e-15 0 
6 4.04064e-05 8.78466e-06 0 -5.04262e-07 1.70661e-06 0 0 0 0 
5 4.94555e-05 8.86801e-06 0 1.24878e-06 8.3392e-07 0 0 0 0 
7 4.11036e-06 1.75837e-05 0 -5.56329e-06 -1.88399e-06 0 5.32102e-16 -1.78788e-16 0 
3 2.673e-05 1.73271e-05 0 1.20569e-06 -1.48407e-06 0 0 0 0 
10 3.65354e-05 1.5917e-05 0 2.50818e-06 -1.79609e-06 0 9.31944e-16 -2.58185e-15 0 
1 4.68278e-05 2.00307e-05 0 1.19202e-06 2.99405e-07 0 -5.32102e-16 1.78788e-16 0 
ITEM: TIMESTEP
330000
ITEM: NUMBER OF ATOMS
10
ITEM: BOX BOUNDS pp pp pp
0 5e-05
0 2e-05
-5e-06 5e-06
ITEM: ATOMS id x y z vx vy vz fx fy fz 
2 1.29267e-05 3.38039e-06 0 -5.29571e-07 -2.7312e-07 0 -1.10686e-15 -1.07925e-15 0 
8 3.32418e-05 1.71157e-06 0 -1.11e-06 -2.90937e-07 0 3.17475e-16 3.45324e-16 0 