LAMMPS (16 Feb 2016)
# Big colloid particles and small LJ particles

units		si
atom_style	atomic
dimension	2

lattice		sq 10e-6 # lattice & latice constant
Lattice spacing in x,y,z = 1e-05 1e-05 1e-05
region		box block 0 5 0 2 -0.5 0.5
create_box	1 box
Created orthogonal box = (0 0 -5e-06) to (5e-05 2e-05 5e-06)
  1 by 1 by 1 MPI processor grid
create_atoms	1 box
Created 10 atoms

#set		group all type/fraction 2 0.96 23984

#set		type 1 mass 1e-9
#set		type 2 mass 1
mass 1 1e-9

velocity	all create 300 87287 loop geom

# multi neighbor and comm for efficiency

neighbor	5e-6 bin
#neigh_modify	delay 0
#comm_modify     mode multi

# colloid potential

pair_style	dlvo 2.5e-6# cutoff
pair_coeff	1 1  1.3e-20 2.7e-6 8.15e-12 104022291 0.0828
# hamaker radius psi debyeinv springk
dielectric 	80
pair_modify	shift yes

#fix		1 all npt temp 300 300 1 iso 0.002 0.002 10 #mtk no pchain 0 tchain 1
fix		1 all nve
fix		2 all enforce2d

dump		1 all custom 10000 dump.dlvo.lammpstrj id x y z vx vy vz fx fy fz
#dump_modify 	1 scale no

#dump		2 all image 1000 image.*.jpg type type #		zoom 1.5 center d 0.5 0.5 0.5
#dump_modify	2 pad 5 adiam 1 5.0 adiam 2 1.5

#dump		3 all movie 1000 movie.mpg type type #		zoom 1.5 center d 0.5 0.5 0.5
#dump_modify	3 pad 5 adiam 1 5.0 adiam 2 1.5

thermo_style	custom step temp epair etotal press vol
thermo		1000

timestep	10e-3

run		10000000
Neighbor list info ...
  1 neighbor list requests
  update every 1 steps, delay 10 steps, check yes
  max neighbors/atom: 2000, page size: 100000
  master list distance cutoff = 1.29e-05
  ghost atom cutoff = 1.29e-05
  binsize = 6.45e-06 -> bins = 8 4 2
Memory usage per processor = 3.47686 Mbytes
Step Temp E_pair TotEng Press Volume 
       0          300            0 3.7277561e-20 3.7277561e-11        1e-09 
    1000    253.73775 5.7220743e-21 3.7251155e-20 7.1927791e-11        1e-09 
    2000    236.23645 7.8409023e-21 3.7195298e-20 7.8042247e-11        1e-09 
    3000    212.26708 1.089079e-20 3.7266786e-20 1.3700583e-10        1e-09 
    4000    284.98319 1.8577222e-21 3.7269317e-20 5.0501718e-11        1e-09 
    5000    218.19877 1.013848e-20 3.7251539e-20 9.0670663e-11        1e-09 
    6000    252.08072 5.9407867e-21 3.7263968e-20 6.5313406e-11        1e-09 
    7000    211.09573 1.0933566e-20 3.7164013e-20 1.0047629e-10        1e-09 
    8000    226.10294 9.0434096e-21 3.7138629e-20 9.0846322e-11        1e-09 
    9000    274.33209 3.1405803e-21 3.7228685e-20 5.4301179e-11        1e-09 
   10000    194.19108 1.308846e-20 3.7218359e-20 1.0054043e-10        1e-09 
   11000    266.74883 4.021466e-21 3.7167285e-20 5.8359611e-11        1e-09 
   12000    244.89278 6.7198529e-21 3.7149872e-20 7.1318636e-11        1e-09 
   13000    220.71464 9.7233404e-21 3.7149019e-20 1.0123545e-10        1e-09 
   14000    275.53441 2.8421663e-21 3.7079669e-20 5.7056895e-11        1e-09 
   15000     246.2023 6.5252982e-21 3.7118036e-20 7.2904236e-11        1e-09 
   16000    279.54283 2.3811937e-21 3.7116776e-20 5.0846627e-11        1e-09 
   17000    228.03887 8.7988615e-21 3.7134638e-20 1.0254869e-10        1e-09 
   18000     240.5789 7.2520314e-21 3.7146014e-20 7.3021156e-11        1e-09 
   19000    264.90028 4.2519259e-21 3.7168047e-20 6.0557326e-11        1e-09 
   20000    243.01563 6.9486878e-21 3.7145454e-20 7.4644641e-11        1e-09 
   21000    255.78228 5.3034853e-21 3.7086616e-20 6.6806356e-11        1e-09 
   22000     270.5054 3.493862e-21 3.7106467e-20 5.7269189e-11        1e-09 
   23000    210.58301 1.0950897e-20 3.7117633e-20 9.4617124e-11        1e-09 
   24000    222.04507 9.5294524e-21 3.7120448e-20 8.9441964e-11        1e-09 
   25000    282.85929 1.901768e-21 3.7049449e-20 4.7178708e-11        1e-09 
   26000    236.88252 7.5876529e-21 3.7022328e-20 7.9514929e-11        1e-09 
   27000    259.33119 4.7160896e-21 3.6940204e-20 6.1684442e-11        1e-09 
   28000    228.81417 8.4513843e-21 3.6883499e-20 8.000395e-11        1e-09 
   29000    252.03035 5.5813942e-21 3.6898316e-20 6.3846154e-11        1e-09 
   30000     259.8793 4.7007778e-21 3.6992999e-20 6.1607398e-11        1e-09 
   31000    251.67106 5.7421612e-21 3.7014438e-20 7.7199778e-11        1e-09 
   32000    247.78139 6.1824528e-21 3.6971406e-20 6.8103139e-11        1e-09 
   33000    253.34071 5.4686844e-21 3.694843e-20 6.5870486e-11        1e-09 
   34000    247.66199 6.2117947e-21 3.698591e-20 6.7129929e-11        1e-09 
   35000    248.80235 6.0484792e-21 3.6964295e-20 7.1471022e-11        1e-09 
   36000    287.61855 1.2055544e-21 3.6944615e-20 4.6785744e-11        1e-09 
   37000    271.49585 3.1763405e-21 3.6912017e-20 5.4815624e-11        1e-09 
   38000    270.83728 3.2080721e-21 3.6861916e-20 5.4805381e-11        1e-09 
   39000    288.19221 1.041087e-21 3.685143e-20 4.4764012e-11        1e-09 
   40000    223.64861 9.0528642e-21 3.6843113e-20 8.9019618e-11        1e-09 
   41000    266.80729 3.602976e-21 3.6756059e-20 5.725344e-11        1e-09 
   42000    275.74201 2.5404869e-21 3.6803785e-20 4.8021643e-11        1e-09 
   43000    231.62466 8.0136168e-21 3.6794957e-20 8.7507911e-11        1e-09 
   44000    276.57469 2.4651216e-21 3.6831888e-20 4.943915e-11        1e-09 
   45000    273.80588 2.863215e-21 3.6885933e-20 5.3189604e-11        1e-09 
   46000    286.13882 1.2419047e-21 3.6797095e-20 4.4968503e-11        1e-09 
   47000    229.76896 8.2480828e-21 3.6798838e-20 7.9903811e-11        1e-09 
   48000    181.80522 1.4151421e-20 3.6742271e-20 1.2627296e-10        1e-09 
   49000    244.04319 6.4206521e-21 3.6745101e-20 6.7565875e-11        1e-09 
   50000    228.34269 8.3727437e-21 3.6746272e-20  8.31263e-11        1e-09 
   51000    260.00017 4.4867514e-21 3.6793992e-20 5.6981489e-11        1e-09 
   52000    248.92578 5.8513606e-21 3.6782514e-20 6.3627345e-11        1e-09 
   53000    239.29386 7.0222723e-21 3.6756578e-20 7.1451614e-11        1e-09 
   54000    186.09137 1.3596711e-20 3.6720152e-20 1.2585567e-10        1e-09 
   55000    196.10234 1.2264568e-20 3.6631957e-20 1.2083237e-10        1e-09 
   56000    277.40516 2.208685e-21 3.6678644e-20 5.6128353e-11        1e-09 
   57000    246.57404 6.1053252e-21 3.6744254e-20 7.0396152e-11        1e-09 
   58000    224.65364 8.8039108e-21 3.6719043e-20 1.1345692e-10        1e-09 
   59000    241.84475 6.6246559e-21 3.6675931e-20 7.5251529e-11        1e-09 
   60000     286.5464 1.1042362e-21 3.6710072e-20 4.2839022e-11        1e-09 
   61000    269.60051 3.171287e-21 3.6671451e-20 5.7010397e-11        1e-09 
   62000    224.91076 8.7375702e-21 3.6684652e-20 8.2903788e-11        1e-09 
   63000     253.8107 5.1885069e-21 3.6726653e-20 6.7140784e-11        1e-09 
   64000    273.90473 2.6767766e-21 3.6711777e-20 5.3539024e-11        1e-09 
   65000    248.81893 5.8519034e-21 3.6769779e-20 6.3632506e-11        1e-09 
   66000    253.25148 5.3186372e-21 3.6787296e-20 6.7797005e-11        1e-09 
   67000    239.10997 7.0684302e-21 3.6779884e-20 7.2647793e-11        1e-09 
   68000    233.01213 7.9152652e-21 3.6869012e-20 7.8150922e-11        1e-09 
   69000    255.22468 5.1417717e-21 3.6855616e-20 6.3080797e-11        1e-09 
   70000    286.32345 1.2780339e-21 3.6856166e-20 4.4089167e-11        1e-09 
   71000    253.81651 5.3351499e-21 3.6874017e-20 6.1826238e-11        1e-09 
   72000    238.86263 7.1729773e-21 3.6853698e-20 7.1772032e-11        1e-09 
   73000    286.65231 1.198499e-21 3.6817495e-20 4.8476787e-11        1e-09 
   74000    283.54127 1.6302887e-21 3.6862712e-20 4.4851494e-11        1e-09 
   75000    274.73178 2.6735269e-21 3.6811296e-20 5.3777849e-11        1e-09 
   76000    256.54714 4.9293647e-21 3.6807537e-20 6.4993502e-11        1e-09 
   77000     276.2285 2.4292777e-21 3.6753027e-20 5.3203693e-11        1e-09 
   78000    224.18291 8.9168502e-21 3.6773491e-20 7.882453e-11        1e-09 
   79000    225.99064 8.6654151e-21 3.6746681e-20 7.753041e-11        1e-09 
   80000     235.1233 7.5350488e-21 3.6751125e-20 7.2552368e-11        1e-09 
   81000    222.96871 8.9987595e-21 3.6704525e-20 1.1500094e-10        1e-09 
   82000    263.09935 3.9900956e-21 3.6682435e-20 5.5629095e-11        1e-09 
   83000    280.61013 1.8014843e-21 3.6669689e-20 5.1931406e-11        1e-09 
   84000     250.5329 5.5008489e-21  3.66317e-20 6.8641201e-11        1e-09 
   85000    261.53093 4.1210689e-21 3.661852e-20 5.8007423e-11        1e-09 
   86000    220.27437 9.2592858e-21 3.6630256e-20 9.4183183e-11        1e-09 
   87000    240.44315 6.8106374e-21 3.6687751e-20 7.4359424e-11        1e-09 
   88000    261.43122 4.232181e-21 3.6717242e-20 6.0192641e-11        1e-09 
   89000    230.36267 8.0709739e-21 3.6695502e-20 8.3962681e-11        1e-09 
   90000    237.02081 7.2041177e-21 3.6655976e-20 7.2069524e-11        1e-09 
   91000    268.18315 3.3683135e-21 3.669236e-20 5.7321416e-11        1e-09 
   92000    247.16474 5.950064e-21 3.6662392e-20 6.8197959e-11        1e-09 
   93000    263.97549 3.8567819e-21 3.665799e-20 5.5780359e-11        1e-09 
   94000    283.48659 1.4705117e-21 3.669614e-20 4.9170225e-11        1e-09 
   95000    241.61941 6.6271408e-21 3.6650415e-20 7.1558385e-11        1e-09 
   96000     219.9673 9.3477477e-21 3.6680563e-20 8.4382296e-11        1e-09 
   97000    234.94464 7.4718528e-21 3.6665729e-20 9.2679533e-11        1e-09 
   98000    277.78407 2.1584154e-21 3.6675457e-20 4.7517664e-11        1e-09 
   99000    252.06117 5.2869852e-21 3.6607737e-20 6.0145574e-11        1e-09 
  100000    266.80118 3.4280814e-21 3.6580406e-20 5.6676752e-11        1e-09 
  101000    274.93115 2.3702479e-21 3.653279e-20 4.9853214e-11        1e-09 
  102000    262.61054 3.8802155e-21 3.6511816e-20 5.8361053e-11        1e-09 
  103000     236.5667 7.0835152e-21 3.6478947e-20 7.3680088e-11        1e-09 
  104000    272.44528 2.6786302e-21 3.6532282e-20 5.208152e-11        1e-09 
  105000     175.7349 1.4614812e-20 3.6451374e-20 1.3967484e-10        1e-09 
  106000    208.87361 1.0480369e-20 3.6434698e-20 9.497578e-11        1e-09 
  107000    274.03479 2.4292173e-21 3.6480379e-20 4.9622143e-11        1e-09 
  108000    258.83064 4.3000857e-21 3.6462002e-20 5.9072062e-11        1e-09 
  109000    276.95336 2.0636292e-21 3.6477448e-20 5.3689866e-11        1e-09 
  110000    263.49702 3.700945e-21 3.6442699e-20 5.2609095e-11        1e-09 
  111000    244.87141 5.981777e-21 3.640914e-20 6.5663568e-11        1e-09 
  112000    255.86052 4.6640273e-21 3.6456881e-20 6.1750737e-11        1e-09 
  113000     264.9217 3.4475705e-21 3.6366353e-20 5.5907712e-11        1e-09 
  114000    242.13014 6.3619814e-21 3.6448718e-20 6.9275354e-11        1e-09 
  115000    260.00538 4.1524596e-21 3.6460348e-20 6.0896438e-11        1e-09 
  116000    282.45294 1.3593216e-21 3.645651e-20 4.5076988e-11        1e-09 
  117000    255.67398 4.6637331e-21 3.6433408e-20 6.3298519e-11        1e-09 
  118000    242.39203 6.3443554e-21 3.6463634e-20 6.7243364e-11        1e-09 
  119000    272.20654 2.6123269e-21 3.6436313e-20 4.9180921e-11        1e-09 
  120000    262.64477 3.7769593e-21 3.6412814e-20 5.361343e-11        1e-09 
  121000    230.51081 7.7005698e-21 3.6343505e-20 7.2804895e-11        1e-09 
  122000    256.17151 4.4575017e-21 3.6288999e-20 5.5835067e-11        1e-09 
  123000    270.98279 2.6033874e-21 3.6275312e-20 5.0837798e-11        1e-09 
  124000    224.45657 8.2969127e-21 3.6187558e-20 8.7767619e-11        1e-09 
  125000    254.37812 4.6114533e-21 3.6220106e-20 5.9811642e-11        1e-09 
  126000    261.68902 3.6971483e-21 3.6214242e-20 5.657395e-11        1e-09 
  127000    261.34227 3.7091113e-21 3.6183119e-20 5.3955185e-11        1e-09 
  128000    202.31391 1.1093033e-20 3.6232263e-20 1.0062504e-10        1e-09 
  129000    258.30749 4.1671474e-21 3.6264059e-20 5.7115553e-11        1e-09 
  130000    265.44109 3.233656e-21 3.6216977e-20 5.3652347e-11        1e-09 
  131000    270.83845 2.6130042e-21 3.6266994e-20 4.9833653e-11        1e-09 
  132000    239.81151 6.3881167e-21 3.6186744e-20 6.8939176e-11        1e-09 
  133000    266.72191 3.0179016e-21 3.6160376e-20 5.3149376e-11        1e-09 
  134000    247.63875 5.3433338e-21 3.6114563e-20 6.3990138e-11        1e-09 
  135000    271.98033 2.2648389e-21 3.6060717e-20 4.7230615e-11        1e-09 
  136000    277.01232 1.6370001e-21 3.6058146e-20 4.8732915e-11        1e-09 
  137000    244.92144 5.6230532e-21 3.6056633e-20 7.3958863e-11        1e-09 
  138000    241.90239 6.0025988e-21 3.6061036e-20 7.3856185e-11        1e-09 
  139000    235.50063 6.7428892e-21 3.6005852e-20  8.14759e-11        1e-09 
  140000    260.23084 3.6577585e-21 3.5993662e-20 5.4496275e-11        1e-09 
  141000    227.86564 7.6516643e-21 3.5965915e-20 7.5821477e-11        1e-09 
  142000     249.7266 4.9562021e-21 3.5986864e-20 6.1225663e-11        1e-09 
  143000    274.91275 1.8188907e-21 3.5979147e-20 4.6754163e-11        1e-09 
  144000    274.92692 1.7917715e-21 3.5953788e-20 4.6163432e-11        1e-09 
  145000    282.90385 8.1250763e-22 3.5965725e-20 4.1571916e-11        1e-09 
  146000    227.85068 7.6869047e-21 3.5999296e-20 8.1035001e-11        1e-09 
  147000    278.76084 1.2968068e-21 3.5935221e-20 4.2896009e-11        1e-09 
  148000    275.62061 1.7250681e-21 3.5973282e-20 4.896481e-11        1e-09 
  149000    250.00293 4.8728337e-21 3.5937831e-20 6.2142002e-11        1e-09 
  150000    245.08109 5.4627422e-21 3.591616e-20 6.017323e-11        1e-09 
  151000    244.59422 5.5445993e-21 3.593752e-20 6.3916242e-11        1e-09 
  152000    267.64257 2.6990876e-21 3.5955961e-20 5.0030714e-11        1e-09 
  153000    234.89212 6.6995639e-21 3.5886915e-20 7.1255651e-11        1e-09 
  154000    273.48395 1.9449945e-21 3.592771e-20 4.9531976e-11        1e-09 
  155000    255.19931 4.2714152e-21 3.5982108e-20 5.9539839e-11        1e-09 
  156000    252.71984 4.6752931e-21 3.607789e-20 5.9179773e-11        1e-09 
  157000    254.84184 4.3926023e-21 3.6058876e-20 5.9554425e-11        1e-09 
  158000    265.49773 3.080332e-21 3.6070691e-20 5.2422409e-11        1e-09 
  159000    248.14837 5.2076815e-21 3.6042235e-20 6.1731041e-11        1e-09 
  160000    262.79215 3.359621e-21 3.6013788e-20 5.5430971e-11        1e-09 
  161000    260.90991 3.6221059e-21 3.604239e-20 5.4883951e-11        1e-09 
  162000    256.31651 4.1887283e-21 3.6038242e-20 6.0636123e-11        1e-09 
  163000    262.61099 3.3246029e-21 3.595626e-20 5.5595902e-11        1e-09 
  164000    266.05681 2.8225032e-21 3.5882332e-20 5.1772772e-11        1e-09 
  165000    236.27921 6.5181924e-21 3.5877902e-20 8.2811229e-11        1e-09 
  166000    228.60202 7.5033326e-21 3.5909085e-20 7.9232938e-11        1e-09 
  167000    231.49729 7.1731887e-21 3.5938703e-20 8.6948766e-11        1e-09 
  168000    261.47818 3.5374114e-21 3.6028308e-20 5.4434162e-11        1e-09 
  169000    282.88245 8.4694896e-22 3.5997508e-20 4.8648057e-11        1e-09 
  170000    273.09368 2.0265987e-21 3.596082e-20 4.627673e-11        1e-09 
  171000    222.27229 8.3654615e-21 3.5984691e-20 8.8780225e-11        1e-09 
  172000    248.56203 5.0203712e-21 3.5906325e-20 5.9725577e-11        1e-09 
  173000    245.74289 5.3971955e-21 3.5932848e-20 6.5470513e-11        1e-09 
  174000    275.04796 1.7611408e-21 3.5938197e-20 4.5436891e-11        1e-09 
  175000     192.2426 1.2053862e-20 3.5941646e-20 1.0484975e-10        1e-09 
  176000    217.31469 8.9340578e-21 3.5937263e-20 7.8892718e-11        1e-09 
  177000    240.54068 6.0768792e-21 3.5966112e-20 6.5775724e-11        1e-09 
  178000    257.01132 4.0432804e-21 3.5979131e-20 5.7817968e-11        1e-09 
  179000    235.90332 6.6757379e-21 3.5988739e-20 7.0592716e-11        1e-09 
  180000    247.78567 5.1927733e-21 3.5982258e-20 6.1948992e-11        1e-09 
  181000    246.82423 5.2411294e-21 3.5911147e-20 6.2706074e-11        1e-09 
  182000    244.46565 5.5050588e-21 3.5882003e-20 6.2877984e-11        1e-09 
  183000     261.3454 3.4437705e-21 3.5918168e-20 5.7553369e-11        1e-09 
  184000    247.20191 5.2146269e-21 3.5931574e-20 6.4435855e-11        1e-09 
  185000     262.6605 3.202575e-21 3.5840385e-20 5.5490392e-11        1e-09 
  186000    252.10465 4.4733929e-21 3.5799547e-20 6.0578505e-11        1e-09 
  187000     230.0987 7.1738847e-21 3.5765613e-20 7.6368751e-11        1e-09 
  188000    201.25099 1.0802233e-20 3.5809386e-20 9.4365628e-11        1e-09 
  189000    265.64521 2.7625035e-21 3.5771189e-20 5.4712439e-11        1e-09 
  190000    276.34771 1.3929997e-21 3.5731562e-20 4.4943207e-11        1e-09 
  191000    255.41695 3.9944265e-21 3.5732162e-20 5.9473755e-11        1e-09 
  192000    246.77739 5.0538672e-21 3.5718065e-20 6.0140287e-11        1e-09 
  193000     261.5485 3.2210561e-21 3.572069e-20 5.2682314e-11        1e-09 
  194000    237.93256 6.194634e-21 3.5759786e-20 6.4526593e-11        1e-09 
  195000    276.36909 1.4780713e-21 3.581929e-20 4.5045627e-11        1e-09 
  196000    230.09756 7.2423785e-21 3.5833965e-20 7.2575649e-11        1e-09 
  197000    216.15424 8.8906642e-21 3.5749674e-20 8.549706e-11        1e-09 
  198000    259.00164 3.6423878e-21 3.5825553e-20 5.2606785e-11        1e-09 
  199000    232.92638 6.8482905e-21 3.5791382e-20 7.2153155e-11        1e-09 
  200000    256.64608 3.8787898e-21 3.5769256e-20 5.8126917e-11        1e-09 
  201000    277.97781 1.2110541e-21 3.5752169e-20 4.4266253e-11        1e-09 
  202000    268.32734 2.3621379e-21  3.57041e-20 4.7303824e-11        1e-09 
  203000    222.67012  8.10238e-21 3.5771044e-20 7.585625e-11        1e-09 
  204000    235.29267 6.5027777e-21 3.5739901e-20 6.5994187e-11        1e-09 
  205000    269.33655 2.3196029e-21 3.5786968e-20 5.1539649e-11        1e-09 
  206000    253.38411 4.3327837e-21 3.5817922e-20 5.9155558e-11        1e-09 
  207000    243.09559 5.6272874e-21 3.5833989e-20 6.8489088e-11        1e-09 
  208000    218.79505 8.6188696e-21 3.5806022e-20 8.6391088e-11        1e-09 
  209000    228.83364 7.4295878e-21 3.5864121e-20 8.8062809e-11        1e-09 
  210000    244.31252 5.4710643e-21 3.5828981e-20 6.475099e-11        1e-09 
  211000    206.79994 1.0134203e-20 3.5830861e-20 8.8616588e-11        1e-09 
  212000      256.441 3.9539755e-21 3.5818958e-20 5.798028e-11        1e-09 
  213000    272.65163 1.8860775e-21 3.576537e-20 4.6297219e-11        1e-09 
  214000    228.11412 7.4776285e-21 3.5822755e-20 7.9183943e-11        1e-09 
  215000    232.18959 6.857047e-21 3.5708586e-20 6.8046773e-11        1e-09 
  216000    260.31673 3.336215e-21 3.5682791e-20 5.2403383e-11        1e-09 
  217000    274.88919 1.4814601e-21 3.5638789e-20 4.469563e-11        1e-09 
  218000    207.92611 9.7753876e-21 3.5611982e-20 8.4915591e-11        1e-09 
  219000    249.23095 4.6986778e-21 3.566775e-20 5.972487e-11        1e-09 
  220000    229.02553 7.2365679e-21 3.5694945e-20 7.9340798e-11        1e-09 
  221000    245.17444 5.2598608e-21 3.5724878e-20 6.1473862e-11        1e-09 
  222000    240.27887 5.8645244e-21 3.5721226e-20 6.8588329e-11        1e-09 
  223000    219.61032 8.4517165e-21 3.5740173e-20 7.8526039e-11        1e-09 
  224000    271.26846 2.0431564e-21 3.5750578e-20 4.7955979e-11        1e-09 
  225000    245.51188 5.2499872e-21 3.5756934e-20 6.6051787e-11        1e-09 
  226000    260.76741 3.280985e-21 3.5683561e-20 5.4523109e-11        1e-09 
  227000    206.51224 1.0072272e-20 3.5733181e-20 1.0080971e-10        1e-09 
  228000    267.73434 2.4128272e-21 3.5681104e-20 5.0157398e-11        1e-09 
  229000     270.7515 2.0885393e-21 3.5731724e-20 4.6651754e-11        1e-09 
  230000    245.20161 5.2530496e-21 3.5721443e-20 6.2308862e-11        1e-09 
  231000    259.76769 3.4328812e-21 3.5711235e-20 5.1349357e-11        1e-09 
  232000    187.75325 1.2361909e-20 3.5691854e-20 1.1330343e-10        1e-09 
  233000    275.98019 1.4520441e-21 3.5744938e-20 4.2838886e-11        1e-09 
  234000    228.66733 7.3005462e-21 3.5714414e-20 7.4478448e-11        1e-09 
  235000    234.24387 6.5937932e-21 3.5700593e-20 7.0097914e-11        1e-09 
  236000    208.55165 9.7285577e-21 3.5642881e-20 1.0024028e-10        1e-09 
  237000    273.75251 1.6306012e-21 3.5646687e-20 5.036072e-11        1e-09 
  238000    262.55901 3.0209926e-21 3.5646191e-20 5.3659675e-11        1e-09 
  239000    256.22424 3.8191793e-21 3.5657228e-20 5.7954923e-11        1e-09 
  240000    251.96248 4.374623e-21 3.5683112e-20 5.5487763e-11        1e-09 
  241000    275.53993 1.4753735e-21 3.5713562e-20 4.9833125e-11        1e-09 
  242000    279.75745 9.1702317e-22 3.5679275e-20 4.6658067e-11        1e-09 
  243000    217.02217 8.7051515e-21 3.5672009e-20 8.6712469e-11        1e-09 
  244000    246.31357 5.0546552e-21 3.5661218e-20 6.1398283e-11        1e-09 
  245000    266.42732 2.5225963e-21 3.5628465e-20 5.263731e-11        1e-09 
  246000    260.41507 3.3153328e-21 3.5674128e-20 5.5927793e-11        1e-09 
  247000    275.63906 1.4489698e-21 3.5699476e-20 4.4500006e-11        1e-09 
  248000    252.61099 4.2659135e-21 3.5654986e-20 5.9511164e-11        1e-09 
  249000    228.47504 7.2167518e-21 3.5606726e-20 7.7947195e-11        1e-09 
  250000     211.1588 9.4100797e-21 3.5648363e-20 9.3052792e-11        1e-09 
  251000    236.03918 6.2943931e-21 3.5624276e-20 6.9797546e-11        1e-09 
  252000    206.74872 9.909957e-21 3.5600251e-20 1.0053332e-10        1e-09 
  253000    261.88419 3.0381299e-21 3.5579476e-20 5.3798488e-11        1e-09 
  254000    246.35435 4.9520908e-21 3.5563722e-20 6.4868885e-11        1e-09 
  255000    228.74882 7.1216752e-21 3.5545669e-20 6.8682174e-11        1e-09 
  256000    247.21989 4.8233901e-21 3.5542571e-20 6.3615155e-11        1e-09 
  257000    198.05825 1.0961312e-20 3.5571741e-20 1.0815241e-10        1e-09 
  258000    244.89872 5.2545834e-21 3.5685339e-20 6.1188063e-11        1e-09 
  259000    233.66829 6.5835602e-21 3.561884e-20 6.8674333e-11        1e-09 
  260000     272.4486 1.7194817e-21 3.5573546e-20 4.5077274e-11        1e-09 
  261000    260.57994 3.2065108e-21 3.5585793e-20 5.0750513e-11        1e-09 
  262000    236.50552 6.2495616e-21 3.5637391e-20 6.6064863e-11        1e-09 
  263000    249.06073 4.6733248e-21 3.5621246e-20 6.146773e-11        1e-09 
  264000    245.68102 5.1215904e-21 3.5649554e-20 6.7174621e-11        1e-09 
  265000    264.09121 2.8129052e-21 3.5628493e-20 5.111975e-11        1e-09 
  266000    251.51332 4.3604279e-21 3.5613105e-20 6.3243481e-11        1e-09 
  267000    280.30671 8.1822924e-22 3.5648731e-20 4.458263e-11        1e-09 
  268000    261.67138 3.0325406e-21 3.5547444e-20 5.445796e-11        1e-09 
  269000    199.05868 1.0867066e-20 3.5601805e-20 1.0541947e-10        1e-09 
  270000    262.06259 3.0072868e-21 3.5570801e-20 5.4362454e-11        1e-09 
  271000    214.15537 8.9031984e-21 3.5513831e-20 9.018375e-11        1e-09 
  272000    232.41445 6.5729148e-21 3.5452395e-20 8.4291334e-11        1e-09 
  273000    263.06473 2.7702645e-21 3.5458303e-20 5.6395447e-11        1e-09 
  274000     248.2375 4.6264892e-21 3.5472118e-20 6.0605234e-11        1e-09 
  275000     264.8485 2.6524566e-21 3.5562143e-20 5.1326366e-11        1e-09 
  276000    273.05409 1.5980545e-21 3.5527356e-20 5.1663267e-11        1e-09 
  277000    265.23144 2.6323932e-21 3.5589664e-20 5.6356878e-11        1e-09 
  278000     219.7933 8.2372645e-21 3.5548458e-20 9.5110566e-11        1e-09 
  279000     261.3766 3.0086598e-21 3.5486934e-20 5.2281961e-11        1e-09 
  280000    263.17175 2.7821734e-21 3.5483509e-20 5.0315045e-11        1e-09 
  281000    222.74698 7.8093087e-21 3.5487523e-20 8.0720594e-11        1e-09 
  282000     231.3638 6.7918418e-21 3.5540769e-20 8.5632442e-11        1e-09 
  283000    224.43673 7.6300429e-21 3.5518222e-20 8.326166e-11        1e-09 
  284000    218.66018 8.3962687e-21 3.5566662e-20 8.9662095e-11        1e-09 
  285000    257.93707 3.4627468e-21 3.5513629e-20 5.3440721e-11        1e-09 
  286000    263.35168 2.800378e-21 3.5524072e-20 5.1415558e-11        1e-09 
  287000    247.41019 4.7919644e-21 3.5534793e-20 5.9731146e-11        1e-09 
  288000    239.99947 5.7527256e-21 3.5574708e-20 6.4199362e-11        1e-09 
  289000     219.8723 8.2424507e-21 3.556346e-20 7.6463946e-11        1e-09 
  290000    252.69929 4.1488478e-21 3.5548892e-20 5.5491551e-11        1e-09 
  291000    238.36377 5.9146003e-21 3.5533333e-20 6.2494902e-11        1e-09 
  292000    249.05552 4.5174977e-21 3.5464772e-20 5.8554973e-11        1e-09 
  293000    282.53723 3.7958679e-22 3.5487249e-20 3.8098966e-11        1e-09 
  294000    226.67124 7.301838e-21 3.5467674e-20 7.0896519e-11        1e-09 
  295000    258.15681 3.3806387e-21 3.5458826e-20 5.6534855e-11        1e-09 
  296000    243.64434 5.2366157e-21 3.5511504e-20 6.3247763e-11        1e-09 
  297000    194.32029 1.1357121e-20 3.5503075e-20 9.3088545e-11        1e-09 
  298000    247.20999 4.7910511e-21 3.5509003e-20 5.8244712e-11        1e-09 
  299000    258.33281 3.4842526e-21 3.5584309e-20 5.5848028e-11        1e-09 
  300000    249.19269  4.68892e-21 3.5653239e-20 5.8284089e-11        1e-09 
  301000    187.61361 1.2327392e-20 3.5639985e-20 1.0877755e-10        1e-09 
  302000    202.67568 1.0497136e-20 3.5681319e-20 9.1404818e-11        1e-09 
  303000    235.96751 6.3414063e-21 3.5662383e-20 6.8003212e-11        1e-09 
  304000    207.58567 9.8765141e-21 3.5670806e-20 1.0854066e-10        1e-09 
  305000    238.86902 5.9260159e-21 3.5607531e-20 6.3383516e-11        1e-09 
  306000    237.42117 6.0708467e-21 3.5572454e-20 6.4172581e-11        1e-09 
  307000    200.28846 1.0658688e-20 3.5546238e-20 1.0053062e-10        1e-09 
  308000    227.80685 7.1746822e-21 3.5481628e-20 7.3304816e-11        1e-09 
  309000    245.10404 5.0066321e-21 3.5462901e-20 6.0042039e-11        1e-09 
  310000    211.56705 9.1079419e-21 3.5396953e-20 9.6845498e-11        1e-09 
  311000      255.261 3.6830248e-21 3.5401383e-20 5.7500088e-11        1e-09 
  312000    276.05492 1.0298023e-21 3.5331983e-20 4.6628731e-11        1e-09 
  313000    251.04033 4.1538114e-21 3.5347715e-20 5.6563023e-11        1e-09 
  314000    269.20233 1.8954672e-21 3.5346155e-20 4.868346e-11        1e-09 
  315000    206.63528 9.6426977e-21 3.5318895e-20 8.9810603e-11        1e-09 
  316000    280.65581 4.4401637e-22 3.5317897e-20 4.3567987e-11        1e-09 
  317000    228.94996 6.9214934e-21 3.537048e-20 7.0617322e-11        1e-09 
  318000    234.88173 6.2619135e-21 3.5447974e-20 6.3826036e-11        1e-09 
  319000    223.14211 7.8032281e-21 3.553054e-20 7.9158342e-11        1e-09 
  320000    214.54132 8.8376803e-21 3.549627e-20 8.4021444e-11        1e-09 
  321000    216.74554 8.5168798e-21 3.5449364e-20 7.7102868e-11        1e-09 
  322000    188.40134 1.2049309e-20 3.5459784e-20 1.1675781e-10        1e-09 
  323000    189.68488 1.1904695e-20 3.5474661e-20 9.0913691e-11        1e-09 
  324000    259.68151 3.2170956e-21 3.548474e-20 5.0479838e-11        1e-09 
  325000    237.99539 5.8992778e-21 3.5472236e-20 7.2563921e-11        1e-09 
  326000    179.09072 1.3232629e-20 3.548618e-20 1.2560404e-10        1e-09 
  327000    275.96232 1.2189671e-21 3.5509641e-20 4.2452948e-11        1e-09 
  328000    250.82317  4.41011e-21 3.557703e-20 6.2328374e-11        1e-09 
  329000     243.3118 5.3638837e-21 3.5597452e-20 6.9172851e-11        1e-09 
  330000    233.61202 6.5194209e-21 3.5547709e-20 6.8693671e-11        1e-09 
  331000    275.22964 1.3373291e-21 3.5536961e-20 4.7447362e-11        1e-09 
  332000    254.56078 3.9405088e-21 3.5571859e-20 6.1869455e-11        1e-09 
  333000    271.15115 1.8288508e-21 3.5521696e-20 4.5683677e-11        1e-09 
  334000    264.53341 2.6519669e-21 3.5522501e-20 4.9321989e-11        1e-09 
  335000    257.27066 3.5205757e-21 3.5488652e-20 5.6397272e-11        1e-09 
  336000    212.17154 9.1910269e-21 3.5555152e-20 1.1783423e-10        1e-09 
  337000    258.59546 3.4703349e-21 3.5603029e-20 5.899601e-11        1e-09 
  338000    196.96937 1.107673e-20 3.5551856e-20 1.5515009e-10        1e-09 
  339000    278.65966 8.6986825e-22 3.549571e-20 4.4638437e-11        1e-09 
  340000    242.86143 5.3582952e-21 3.5535901e-20 6.2264269e-11        1e-09 
  341000    265.19597 2.5270841e-21 3.5479947e-20 5.0658798e-11        1e-09 
  342000    234.54539 6.3276707e-21 3.5471938e-20 7.3358772e-11        1e-09 
  343000    255.60719 3.7926332e-21 3.5554008e-20 5.3075844e-11        1e-09 
  344000    267.86926 2.3551984e-21 3.564024e-20 5.1964572e-11        1e-09 
  345000     251.1947 4.4478137e-21  3.56609e-20 5.6702399e-11        1e-09 
  346000     265.8949 2.5909282e-21 3.563064e-20 5.1298909e-11        1e-09 
  347000    257.05684 3.7398741e-21 3.568138e-20 5.6870587e-11        1e-09 
  348000    239.52716 5.8893261e-21 3.5652621e-20 6.9646056e-11        1e-09 
  349000    254.06271 4.0937853e-21 3.5663246e-20 5.5060209e-11        1e-09 
  350000    246.39479 5.0894319e-21 3.5706088e-20 6.0814634e-11        1e-09 
  351000    271.27513 2.0369733e-21 3.5745223e-20 4.6275153e-11        1e-09 
  352000    279.10236 1.0193409e-21 3.5700192e-20 4.5063693e-11        1e-09 
  353000    260.71297 3.3058561e-21 3.5701668e-20 5.1689419e-11        1e-09 
  354000    267.45583 2.4683228e-21 3.5701993e-20 5.0793828e-11        1e-09 
  355000    279.23465 1.0174485e-21 3.5714737e-20 4.0207872e-11        1e-09 
  356000    251.03275 4.5394859e-21 3.5732448e-20 5.8852342e-11        1e-09 
  357000    210.90001 9.6311369e-21 3.5837263e-20 9.1317648e-11        1e-09 
  358000    205.01833 1.0411996e-20 3.5887273e-20 1.137452e-10        1e-09 
  359000    243.71963 5.5705064e-21 3.585475e-20 6.5221225e-11        1e-09 
  360000    210.80124 9.5830883e-21 3.5776941e-20 8.6954931e-11        1e-09 
  361000      222.899 8.062819e-21 3.5759923e-20 7.944127e-11        1e-09 
  362000    239.19698 6.0177677e-21 3.5740034e-20 6.8484553e-11        1e-09 
  363000    167.69331 1.4864682e-20 3.5702008e-20 1.224756e-10        1e-09 
  364000    235.03982 6.4923486e-21 3.5698052e-20 7.9645302e-11        1e-09 
  365000    249.16794 4.8000075e-21 3.5761251e-20 6.1241464e-11        1e-09 
  366000    234.38046 6.6230833e-21 3.5746856e-20 6.9277011e-11        1e-09 
  367000    255.99451 3.9616678e-21 3.577117e-20 5.5170915e-11        1e-09 
  368000    209.23737 9.7892306e-21 3.578876e-20 8.647418e-11        1e-09 
  369000    204.54488 1.0406617e-20 3.5823064e-20 8.8529997e-11        1e-09 
  370000    263.75925 3.0475101e-21 3.5821848e-20 5.1973503e-11        1e-09 
  371000    249.79929 4.8163764e-21 3.585607e-20 5.8356873e-11        1e-09 
  372000    253.32355 4.3933993e-21 3.5871013e-20 5.8679442e-11        1e-09 
  373000     194.1408 1.1724687e-20 3.5848339e-20 1.1892359e-10        1e-09 
  374000    270.41819 2.257602e-21 3.5859371e-20 4.7097907e-11        1e-09 
  375000    245.18774 5.3716851e-21 3.5838355e-20 6.3162715e-11        1e-09 
  376000    269.73218 2.372336e-21 3.5888862e-20 4.9182715e-11        1e-09 
  377000    256.67538 3.9275247e-21 3.5821632e-20 5.6481562e-11        1e-09 
  378000    263.61831 3.015985e-21 3.577281e-20 5.131302e-11        1e-09 
  379000    235.38448 6.5808105e-21 3.5829341e-20 7.7917854e-11        1e-09 
  380000    284.03035 6.0817391e-22 3.590137e-20 4.0779374e-11        1e-09 
  381000    205.19037 1.036861e-20 3.5865265e-20 9.3594385e-11        1e-09 
  382000    270.66947 2.1853905e-21 3.5818383e-20 4.8517726e-11        1e-09 
  383000    269.76566 2.2452759e-21 3.5765961e-20 4.8650937e-11        1e-09 
  384000    194.81153 1.1545005e-20   3.5752e-20 1.1480448e-10        1e-09 
  385000    261.34258 3.2782009e-21 3.5752247e-20 5.4580868e-11        1e-09 
  386000    245.75904 5.2173622e-21 3.5755021e-20 6.2733005e-11        1e-09 
  387000     236.7527 6.2991861e-21 3.5717731e-20 8.3189967e-11        1e-09 
  388000    205.20102 1.0196893e-20 3.5694871e-20 1.1318718e-10        1e-09 
  389000    254.90081 4.0579655e-21 3.5731567e-20 5.579699e-11        1e-09 
  390000    241.30458 5.7865999e-21 3.5770754e-20 6.4416732e-11        1e-09 
  391000    210.85407 9.6046127e-21 3.5805031e-20 1.0792731e-10        1e-09 
  392000    227.86397 7.5299965e-21 3.584404e-20 8.6274021e-11        1e-09 
  393000    261.47485 3.2561162e-21 3.5746599e-20 5.0072051e-11        1e-09 
  394000    194.88752 1.1461203e-20 3.5677641e-20 1.0449255e-10        1e-09 
  395000    253.89155 4.1635547e-21 3.5711747e-20 5.9103491e-11        1e-09 
  396000    233.65942 6.7438217e-21 3.5777999e-20 6.8379256e-11        1e-09 
  397000    277.32263 1.2995482e-21 3.5759252e-20 4.4117193e-11        1e-09 
  398000    253.84181 4.2154765e-21 3.5757488e-20 5.7264097e-11        1e-09 
  399000    271.81666 1.9384309e-21 3.5713971e-20 4.6155213e-11        1e-09 
  400000    228.66559 7.3031666e-21 3.5716818e-20 7.3479443e-11        1e-09 
  401000    274.15951 1.6411686e-21 3.5707828e-20 4.5407113e-11        1e-09 
  402000    270.56396 2.0950747e-21 3.5714956e-20 4.8300139e-11        1e-09 
  403000    265.12592 2.6720037e-21 3.5616162e-20 5.0911113e-11        1e-09 
  404000    216.69998 8.6608842e-21 3.5587707e-20 8.5723913e-11        1e-09 
  405000      237.689 5.9688922e-21 3.5503779e-20 8.2374474e-11        1e-09 
  406000    185.16692 1.2538417e-20 3.5546987e-20 1.0645345e-10        1e-09 
  407000    252.00047 4.2526794e-21 3.5565889e-20 5.868335e-11        1e-09 
  408000    271.90647 1.8290319e-21 3.5615732e-20 4.8680653e-11        1e-09 
  409000    215.07214 8.8989774e-21 3.5623526e-20  1.12621e-10        1e-09 
  410000    214.09807 8.9797855e-21 3.5583298e-20 8.8445974e-11        1e-09 
  411000    236.36398 6.2281936e-21 3.5598436e-20 6.9501994e-11        1e-09 
  412000    236.47407 6.2700501e-21 3.5653972e-20 7.681975e-11        1e-09 
  413000    258.13614 3.6120219e-21 3.5687641e-20 5.5317409e-11        1e-09 
  414000    260.36544 3.3490325e-21 3.5701661e-20 5.2173025e-11        1e-09 
  415000    249.92981 4.5781544e-21 3.5634067e-20 5.8795416e-11        1e-09 
  416000    242.34961 5.5253425e-21 3.5639351e-20 6.3811854e-11        1e-09 
  417000    195.75138 1.1365653e-20 3.5689433e-20 1.1561077e-10        1e-09 
  418000    249.30704 4.6933459e-21 3.5671873e-20 5.9889268e-11        1e-09 
  419000    258.83593 3.5356939e-21 3.5698267e-20 5.2697271e-11        1e-09 
  420000    250.26009 4.6499906e-21 3.5746943e-20 6.1723482e-11        1e-09 
  421000    219.12708 8.5364355e-21 3.5764846e-20 8.0904697e-11        1e-09 
  422000    278.33196 1.1202112e-21 3.5705334e-20 4.5305034e-11        1e-09 
  423000    230.68436 7.0047402e-21 3.5669242e-20 7.2547187e-11        1e-09 
  424000    280.01786 8.5951196e-22 3.5654121e-20 3.9611444e-11        1e-09 
  425000    222.70735 7.9065552e-21 3.5579844e-20 7.4261486e-11        1e-09 
  426000    208.28292 9.7105947e-21 3.5591526e-20 8.4007796e-11        1e-09 
  427000    238.49942 5.9604615e-21 3.559605e-20 6.3088662e-11        1e-09 
  428000    225.14088 7.6073857e-21 3.5583061e-20 7.0919583e-11        1e-09 
  429000    283.16242 4.2413267e-22 3.5609481e-20 4.0094477e-11        1e-09 
  430000    242.69374 5.4929436e-21 3.5649713e-20 6.4599209e-11        1e-09 
  431000    203.21452 1.0426695e-20 3.5677835e-20 8.8206505e-11        1e-09 
  432000    236.27101 6.2704984e-21 3.5629188e-20 7.5166264e-11        1e-09 
  433000    266.91146 2.455666e-21 3.5621694e-20 5.0127673e-11        1e-09 
  434000    220.88664 8.1741449e-21 3.5621195e-20 8.3939828e-11        1e-09 
  435000    260.51939 3.2524241e-21 3.5624183e-20 5.4008681e-11        1e-09 
  436000    276.03541 1.3326425e-21 3.5632399e-20 4.3134872e-11        1e-09 
  437000    250.61706 4.4560321e-21 3.5597341e-20 5.7653397e-11        1e-09 
  438000     210.6807 9.4574503e-21 3.5636325e-20 1.1116865e-10        1e-09 
  439000    250.87894 4.4714179e-21 3.5645268e-20 6.3884118e-11        1e-09 
  440000    245.88626 5.1028289e-21 3.5656296e-20 6.2824706e-11        1e-09 
  441000    216.79171 8.7058241e-21 3.5644045e-20 9.4183297e-11        1e-09 
  442000    261.16152  3.11233e-21 3.5563879e-20 5.4202653e-11        1e-09 
  443000    224.86895 7.6168531e-21 3.555874e-20 7.5973175e-11        1e-09 
  444000    218.67496 8.3786575e-21 3.5550888e-20 8.8389398e-11        1e-09 
  445000    250.82457 4.3371902e-21 3.5504284e-20 5.9259993e-11        1e-09 
  446000    206.21709 9.9087877e-21 3.5533022e-20 8.236634e-11        1e-09 
  447000    216.26353 8.5770463e-21 3.5449636e-20 1.1745581e-10        1e-09 
  448000    255.22809 3.7718683e-21 3.5486137e-20 5.6426458e-11        1e-09 
  449000    267.92592 2.1994336e-21 3.5491517e-20 4.9755101e-11        1e-09 
  450000    256.91558 3.5263125e-21 3.5450267e-20 5.2558488e-11        1e-09 
  451000    270.92913 1.787581e-21 3.5452837e-20 4.8411946e-11        1e-09 
  452000    213.70219 8.7983435e-21 3.5352664e-20 8.1267867e-11        1e-09 
  453000    271.41834 1.5716958e-21 3.5297742e-20 4.4344327e-11        1e-09 
  454000    233.55729 6.3202342e-21 3.5341721e-20 7.7270627e-11        1e-09 
  455000    259.86108 3.1021952e-21 3.5392153e-20 5.2231513e-11        1e-09 
  456000    256.93569 3.407994e-21 3.5334447e-20 5.3006141e-11        1e-09 
  457000    247.59479 4.4016255e-21 3.5167392e-20 5.8732976e-11        1e-09 
  458000    213.22914 8.6427275e-21 3.5138269e-20 7.4633531e-11        1e-09 
  459000    273.73213 1.1011465e-21  3.51147e-20 4.2908295e-11        1e-09 
  460000    235.74635 5.7979378e-21 3.5091434e-20 6.4029718e-11        1e-09 
  461000    259.42402 2.841197e-21 3.5076845e-20 5.633646e-11        1e-09 
  462000    267.70671 1.8366223e-21 3.5101466e-20 4.6411661e-11        1e-09 
  463000    272.82377 1.2682526e-21 3.5168935e-20 4.3503862e-11        1e-09 
  464000    186.11769 1.2024862e-20 3.5151574e-20 1.0596751e-10        1e-09 
  465000    272.24052 1.3229925e-21 3.5151201e-20 4.2116768e-11        1e-09 
  466000    233.03944 6.1548494e-21 3.5111989e-20 6.8236517e-11        1e-09 
  467000    231.14629 6.3931765e-21 3.5115076e-20 6.468342e-11        1e-09 
  468000    262.54546 2.5132715e-21 3.5136786e-20 5.1927328e-11        1e-09 
  469000    254.41312 3.5533205e-21 3.5166322e-20 5.3107068e-11        1e-09 
  470000    235.15887 6.0010024e-21 3.5221499e-20 6.1171724e-11        1e-09 
  471000    246.97273 4.5243369e-21 3.5212807e-20 5.8692022e-11        1e-09 
  472000    242.16924 5.1019363e-21 3.5193531e-20 5.9889276e-11        1e-09 
  473000     245.5526 4.6065674e-21 3.5118574e-20 6.1452287e-11        1e-09 
  474000    226.09058 7.022364e-21 3.5116048e-20 7.4684209e-11        1e-09 
  475000    223.65122 7.3344843e-21 3.5125058e-20 8.004768e-11        1e-09 
  476000    230.94389 6.4277289e-21 3.5124479e-20 6.8877876e-11        1e-09 
  477000    253.16992 3.6116278e-21 3.5070152e-20 5.7857213e-11        1e-09 
  478000    223.19568 7.3558242e-21 3.5089792e-20 7.6258178e-11        1e-09 
  479000    247.49155 4.295376e-21 3.5048313e-20 5.5637664e-11        1e-09 
  480000    270.96429 1.3018516e-21 3.4971478e-20 4.6852261e-11        1e-09 
  481000    244.99413 4.5197675e-21 3.4962379e-20 6.2953363e-11        1e-09 
  482000    246.96946 4.3416784e-21 3.5029742e-20 5.8753076e-11        1e-09 
  483000    269.01987 1.5971273e-21 3.5025142e-20 4.5225044e-11        1e-09 
  484000    237.62731 5.5211078e-21 3.5048329e-20 6.8036373e-11        1e-09 
  485000     269.2396 1.6384425e-21 3.5093762e-20 4.453531e-11        1e-09 
  486000    206.76238 9.3972284e-21 3.5089219e-20 9.6792717e-11        1e-09 
  487000    153.62495 1.598381e-20 3.5073021e-20 2.0635342e-10        1e-09 
  488000    263.96134 2.280646e-21 3.5080096e-20 4.551581e-11        1e-09 
  489000    240.10809 5.2282586e-21 3.5063739e-20 6.2590431e-11        1e-09 
  490000    257.55849 3.0066943e-21 3.5010535e-20 5.1644336e-11        1e-09 
  491000    258.63919 2.8787453e-21 3.5016872e-20 4.7816974e-11        1e-09 
  492000    214.41748 8.3108146e-21 3.4954016e-20 7.5003271e-11        1e-09 
  493000    247.66864 4.1932326e-21 3.4968175e-20 5.6225309e-11        1e-09 
  494000    269.93579 1.4024931e-21 3.494432e-20 4.5566296e-11        1e-09 
  495000    245.30462 4.454817e-21 3.4936009e-20 5.7306437e-11        1e-09 
  496000    244.73154 4.482655e-21 3.4892638e-20 5.8036845e-11        1e-09 
  497000     267.0989 1.6873656e-21 3.4876684e-20 4.8080899e-11        1e-09 
  498000    239.50383 5.0764406e-21 3.4836836e-20 5.7782679e-11        1e-09 
  499000     276.2881 4.5245854e-22 3.4783613e-20 3.9332941e-11        1e-09 
  500000      246.174 4.2321137e-21 3.4821335e-20 6.0365965e-11        1e-09 
  501000    235.68156 5.5658218e-21 3.4851268e-20 6.4564295e-11        1e-09 
  502000    223.26621 7.0359225e-21 3.4778654e-20 6.8801108e-11        1e-09 
  503000    232.97054 5.8345532e-21 3.4783132e-20 6.4398151e-11        1e-09 
  504000    258.39897 2.659625e-21 3.4767903e-20 5.1420382e-11        1e-09 
  505000    213.11914 8.2565954e-21 3.4738468e-20 7.3820213e-11        1e-09 
  506000     266.9897 1.5598398e-21 3.4735589e-20 4.404568e-11        1e-09 
  507000     229.6655 6.1683341e-21 3.4706232e-20 6.5735015e-11        1e-09 
  508000    234.93272 5.5900498e-21 3.4782446e-20 6.3931733e-11        1e-09 
  509000    260.81755 2.3128933e-21  3.47217e-20 4.727274e-11        1e-09 
  510000    254.00542 3.1637046e-21 3.4726046e-20 5.1441862e-11        1e-09 
  511000    232.83015 5.7193987e-21 3.4650533e-20 6.2560238e-11        1e-09 
  512000    228.16586 6.3152756e-21 3.4666831e-20 6.7881973e-11        1e-09 
  513000    236.38688 5.2999746e-21 3.4673062e-20 6.6443965e-11        1e-09 
  514000    251.59941 3.446703e-21 3.4710077e-20 5.8558454e-11        1e-09 
  515000    256.87957 2.7712091e-21 3.4690688e-20 5.1784563e-11        1e-09 
  516000     218.1734 7.5539547e-21 3.4663862e-20 9.1896795e-11        1e-09 
  517000    246.12941 4.078998e-21 3.4662678e-20 5.5941411e-11        1e-09 
  518000    239.31411 4.9090517e-21 3.4645873e-20 6.0220167e-11        1e-09 
  519000    269.23782 1.2026093e-21 3.4657707e-20 4.2966128e-11        1e-09 
  520000    250.10748 3.5589216e-21 3.4636911e-20 5.2509875e-11        1e-09 
  521000    251.49901 3.4017865e-21 3.4652686e-20 5.3318815e-11        1e-09 
  522000    214.62619 7.9879124e-21 3.4657048e-20 8.8160572e-11        1e-09 
  523000    222.47579 7.035503e-21 3.4680019e-20 8.405315e-11        1e-09 
  524000    220.99182 7.2726887e-21 3.4732809e-20 7.1381848e-11        1e-09 
  525000    208.00966 8.8405079e-21 3.4687484e-20 8.7057268e-11        1e-09 
  526000    187.37719 1.1416524e-20 3.4699739e-20 1.0133142e-10        1e-09 
  527000     267.0203 1.5249565e-21 3.4704508e-20 4.381681e-11        1e-09 
  528000    214.89309 8.0008294e-21 3.470313e-20 7.900999e-11        1e-09 
  529000    199.71569 9.8704501e-21 3.468683e-20 1.0674656e-10        1e-09 
  530000    237.29581 5.1807401e-21 3.466677e-20 6.2199076e-11        1e-09 
  531000    172.90687 1.3183918e-20 3.4669072e-20 2.0023897e-10        1e-09 
  532000    221.81516 7.0292611e-21 3.4591688e-20 6.9725047e-11        1e-09 
  533000    239.65846 4.7494377e-21 3.4529047e-20 5.8928793e-11        1e-09 
  534000    199.56552 9.8120442e-21 3.4609763e-20 1.2789966e-10        1e-09 
  535000    237.32227 5.1339752e-21 3.4623293e-20 6.042367e-11        1e-09 
  536000    261.81047 2.0186399e-21 3.4550825e-20 5.1605279e-11        1e-09 
  537000    240.41472 4.6897538e-21 3.4563335e-20 5.8047924e-11        1e-09 
  538000    251.84247 3.2903888e-21 3.4583966e-20 5.4116522e-11        1e-09 
  539000    222.58232 6.8548042e-21 3.4512558e-20 9.0338407e-11        1e-09 
  540000    190.60845 1.0805937e-20 3.4490664e-20 9.4812741e-11        1e-09 
  541000    264.27807 1.7381361e-21 3.4576942e-20 4.473446e-11        1e-09 
  542000    212.21277 8.2167029e-21 3.4585951e-20 7.792424e-11        1e-09 
  543000    239.91252 4.7099794e-21 3.4521158e-20 5.8288599e-11        1e-09 
  544000    248.96422 3.514523e-21 3.4450453e-20 5.3911699e-11        1e-09 
  545000    250.56393 3.3897354e-21 3.4524443e-20 5.466371e-11        1e-09 
  546000    243.96165 4.2089827e-21  3.45233e-20 6.1157329e-11        1e-09 
  547000    212.50438 8.0980313e-21 3.4503515e-20 8.6625152e-11        1e-09 
  548000    228.86268 6.1296517e-21 3.4567793e-20 6.6808914e-11        1e-09 
  549000    228.41941 6.1713211e-21 3.4554382e-20 7.1403653e-11        1e-09 
  550000    249.94441 3.4735283e-21 3.4531255e-20 5.3127534e-11        1e-09 
  551000    199.33282 9.7151352e-21 3.448394e-20 8.3948387e-11        1e-09 
  552000     225.4116 6.4881826e-21 3.4497497e-20 7.3469798e-11        1e-09 
  553000    256.66758 2.5899852e-21 3.4483123e-20 4.8465033e-11        1e-09 
  554000    226.41626 6.3181066e-21 3.4452259e-20 6.8247708e-11        1e-09 
  555000    260.69445 2.1682411e-21 3.4561752e-20 4.8610423e-11        1e-09 
  556000    188.54545 1.1134843e-20 3.4563225e-20 1.267818e-10        1e-09 
  557000    270.90439 9.2544009e-22 3.4587623e-20 4.0234363e-11        1e-09 
  558000    260.12377 2.2770114e-21 3.459961e-20 4.8022475e-11        1e-09 
  559000    200.18576 9.7606243e-21 3.4635413e-20 9.3405224e-11        1e-09 
  560000    179.59736 1.2272159e-20 3.4588664e-20 1.1159048e-10        1e-09 
  561000    200.88292 9.6129213e-21 3.4574339e-20 9.7554594e-11        1e-09 
  562000    260.80625 2.1551983e-21 3.4562601e-20 4.8625222e-11        1e-09 
  563000    251.73368 3.3376242e-21 3.4617682e-20 5.4505268e-11        1e-09 
  564000    229.32475 6.2141605e-21 3.4709718e-20 7.3452908e-11        1e-09 
  565000    242.78249 4.4936481e-21 3.4661445e-20 6.0116647e-11        1e-09 
  566000    200.06441 9.8220218e-21 3.4681732e-20 9.0667771e-11        1e-09 
  567000    247.96061 3.9821952e-21 3.4793418e-20 5.2987418e-11        1e-09 
  568000    252.36978 3.505696e-21 3.4864795e-20 5.0724737e-11        1e-09 
  569000    273.85568 8.6931568e-22 3.4898222e-20 4.2199392e-11        1e-09 
  570000    218.13848 7.7584834e-21 3.4864052e-20 1.0066771e-10        1e-09 
  571000    235.43662 5.657945e-21 3.4912955e-20 6.9009525e-11        1e-09 
  572000    211.32372 8.5490528e-21 3.4807828e-20 7.7093974e-11        1e-09 
  573000    135.87399 1.788552e-20 3.4769022e-20 3.3833522e-10        1e-09 
  574000    254.11369 3.1430036e-21 3.4718799e-20 5.0658617e-11        1e-09 
  575000    247.55739 3.9824856e-21 3.4743605e-20 5.2445178e-11        1e-09 
  576000    180.48973 1.2338984e-20 3.4766373e-20 1.0481401e-10        1e-09 
  577000    184.13736 1.196272e-20 3.4843358e-20 1.0674959e-10        1e-09 
  578000    224.63591 6.8641256e-21 3.4777056e-20 7.2488102e-11        1e-09 
  579000    260.19259 2.4058605e-21 3.473701e-20 4.6284491e-11        1e-09 
  580000    240.47501 4.8376082e-21 3.4718681e-20 5.8701716e-11        1e-09 
  581000    253.42077 3.268629e-21 3.4758322e-20 5.2457439e-11        1e-09 
  582000    267.34465 1.4677002e-21 3.4687554e-20 4.3500867e-11        1e-09 
  583000     257.3056 2.6960545e-21 3.4668472e-20 4.839073e-11        1e-09 
  584000    196.46378 1.0218819e-20 3.4631121e-20 8.8936051e-11        1e-09 
  585000    238.77892 4.8778566e-21 3.4548176e-20 6.0217915e-11        1e-09 
  586000    170.56018 1.331121e-20 3.4504768e-20 1.752092e-10        1e-09 
  587000    213.24308 8.075789e-21 3.4573062e-20 8.4462183e-11        1e-09 
  588000     259.8336 2.2366119e-21 3.4523155e-20 4.6063678e-11        1e-09 
  589000     266.3066 1.4075241e-21 3.4498393e-20 4.1494562e-11        1e-09 
  590000    231.37731 5.7671248e-21 3.451773e-20 6.4351204e-11        1e-09 
  591000    254.44507 2.898708e-21 3.451568e-20 5.2306929e-11        1e-09 
  592000    224.40119 6.6435039e-21 3.4527267e-20 7.0811941e-11        1e-09 
  593000    239.11555 4.8093964e-21 3.4521544e-20 5.9342828e-11        1e-09 
  594000    243.09017 4.2984288e-21 3.4504457e-20 5.8036254e-11        1e-09 
  595000    251.78817 3.1668118e-21 3.4453642e-20 5.1090786e-11        1e-09 
  596000    237.69586 4.9202451e-21 3.4455984e-20 5.8097262e-11        1e-09 
  597000    173.31702 1.2908798e-20 3.4444918e-20 1.1955983e-10        1e-09 
  598000    272.62654 5.8818436e-22 3.4464359e-20 4.3094536e-11        1e-09 
  599000    229.14725 6.0429505e-21 3.4516452e-20 6.3116291e-11        1e-09 
  600000    212.75626 8.0995244e-21 3.4536306e-20 8.1343939e-11        1e-09 
  601000    256.79353 2.583939e-21 3.4492727e-20 5.0493724e-11        1e-09 
  602000    240.62454 4.5520016e-21 3.4451654e-20 6.1537125e-11        1e-09 
  603000      246.943 3.7444896e-21 3.4429266e-20 5.5817796e-11        1e-09 
  604000    224.62262 6.5464007e-21 3.4457679e-20 6.696247e-11        1e-09 
  605000    246.31382 3.8812632e-21 3.4487858e-20 5.3112409e-11        1e-09 
  606000    213.41198 7.9391075e-21 3.4457368e-20 7.5658117e-11        1e-09 
  607000    233.35168 5.4338963e-21 3.4429834e-20 7.2650555e-11        1e-09 
  608000    228.87059 5.9643658e-21 3.440349e-20 6.2353013e-11        1e-09 
  609000     207.2277 8.5947326e-21 3.4344544e-20  7.70843e-11        1e-09 
  610000    216.16817 7.4800733e-21 3.4340814e-20 6.9737055e-11        1e-09 
  611000    239.97171 4.5468457e-21 3.4365379e-20 5.8071818e-11        1e-09 
  612000    254.22989 2.810616e-21 3.4400851e-20 4.735369e-11        1e-09 
  613000    258.99333 2.2267812e-21 3.4408914e-20 4.8515296e-11        1e-09 
  614000    248.73551 3.5306904e-21 3.4438201e-20 5.4339063e-11        1e-09 
  615000    245.86217 3.8816555e-21 3.4432129e-20 5.9274306e-11        1e-09 
  616000     233.3483 5.4296619e-21 3.442518e-20 5.8286619e-11        1e-09 
  617000    197.62819 9.8241664e-21 3.4381156e-20 1.0917135e-10        1e-09 
  618000    233.15658 5.442758e-21 3.4414453e-20 5.8559106e-11        1e-09 
  619000    247.84473 3.6437916e-21 3.4440615e-20 5.5203055e-11        1e-09 
  620000    228.40695 6.0695051e-21 3.4451019e-20 6.8178231e-11        1e-09 
  621000    211.97101  8.08954e-21 3.4428748e-20 7.5496495e-11        1e-09 
  622000    254.58246 2.8583075e-21 3.4492351e-20 4.9311802e-11        1e-09 
  623000    251.98474 3.1176268e-21 3.4428882e-20 5.118726e-11        1e-09 
  624000    211.43789 8.1804425e-21 3.4453406e-20 1.0586173e-10        1e-09 
  625000    271.97268 6.4241548e-22 3.4437342e-20 4.4844087e-11        1e-09 
  626000    250.99043 3.2665944e-21 3.4454298e-20 5.3012818e-11        1e-09 
  627000     255.2107 2.665669e-21 3.4377777e-20 5.1636408e-11        1e-09 
  628000    254.91197 2.7045718e-21 3.437956e-20 5.1173808e-11        1e-09 
  629000    247.95613 3.5540958e-21 3.4364761e-20 5.7678332e-11        1e-09 
  630000    250.42088 3.2008753e-21 3.4317807e-20 5.1028315e-11        1e-09 
  631000    265.56697 1.2809382e-21 3.4279902e-20 4.4400056e-11        1e-09 
  632000    274.90134 1.2467246e-22 3.4283511e-20 4.004293e-11        1e-09 
  633000     221.4858 6.8632294e-21 3.4384731e-20 7.107793e-11        1e-09 
  634000    232.44318 5.4478296e-21 3.4330879e-20 7.059724e-11        1e-09 
  635000    244.03438 4.010173e-21 3.4333527e-20 5.5514308e-11        1e-09 
  636000    188.94548 1.0861695e-20 3.4339784e-20 9.1993804e-11        1e-09 
  637000    266.32243 1.3064682e-21 3.4399304e-20 4.444154e-11        1e-09 
  638000    245.17019 3.9676874e-21 3.4432177e-20 5.7195658e-11        1e-09 
  639000    227.55331 6.2204595e-21 3.4495901e-20 6.6283226e-11        1e-09 
  640000    227.40528 6.2491275e-21 3.4506175e-20 7.5017123e-11        1e-09 
  641000    227.06896 6.2417364e-21 3.4456993e-20 6.7425549e-11        1e-09 
  642000    236.10015 5.0778081e-21 3.4415267e-20 6.7571726e-11        1e-09 
  643000    269.34449 9.8279402e-22 3.4451146e-20 4.195536e-11        1e-09 
  644000    258.77286 2.241474e-21 3.439621e-20 4.9794149e-11        1e-09 
  645000    252.55353 3.0820802e-21 3.4464013e-20 5.3140027e-11        1e-09 
  646000    249.37858 3.3909051e-21 3.4378323e-20 5.439926e-11        1e-09 
  647000    251.45626 3.1237888e-21 3.4369376e-20 5.167402e-11        1e-09 
  648000    201.27952 9.282248e-21 3.4292947e-20 8.993986e-11        1e-09 
  649000    229.15528 5.8857889e-21 3.4360289e-20 6.8551593e-11        1e-09 
  650000    196.51156 9.9220012e-21 3.434024e-20 9.8033479e-11        1e-09 
  651000    249.59438 3.2613895e-21 3.4275622e-20 5.3463202e-11        1e-09 
  652000     244.1575 3.9326761e-21 3.4271329e-20 5.7523633e-11        1e-09 
  653000    222.95241 6.5676402e-21 3.427138e-20 8.3943622e-11        1e-09 
  654000    254.34506 2.678728e-21 3.4283273e-20 4.8429256e-11        1e-09 
  655000    272.18191 4.4271306e-22 3.4263639e-20 4.0642829e-11        1e-09 
  656000    227.76409 5.9396237e-21 3.4241256e-20 6.4988229e-11        1e-09 
  657000    239.55552 4.5066805e-21 3.4273498e-20 6.216023e-11        1e-09 
  658000    251.92581 2.9787766e-21 3.4282709e-20 5.4171813e-11        1e-09 
  659000     236.4526 4.8886269e-21 3.426988e-20 5.9427606e-11        1e-09 
  660000    244.04951 3.9858389e-21 3.4311074e-20 5.3530371e-11        1e-09 
  661000    250.50651 3.1725657e-21 3.4300138e-20 4.9661049e-11        1e-09 
  662000    190.40585 1.069393e-20 3.4353482e-20 9.5027997e-11        1e-09 
  663000    238.12892 4.8093336e-21 3.4398884e-20 6.0270195e-11        1e-09 
  664000    258.01199 2.345681e-21 3.4405873e-20 4.9097175e-11        1e-09 
  665000    242.68054 4.2192638e-21 3.4374393e-20 5.6294242e-11        1e-09 
  666000    242.04306 4.2717778e-21 3.4347694e-20 5.7525548e-11        1e-09 
  667000    219.18912 7.0757042e-21 3.4311824e-20 7.3890226e-11        1e-09 
  668000    229.58705 5.7754486e-21 3.4303599e-20 6.0898811e-11        1e-09 
  669000    266.21298 1.1445101e-21 3.4223746e-20 4.5706635e-11        1e-09 
  670000    244.44221 3.798628e-21 3.4172659e-20 5.4225561e-11        1e-09 
  671000    196.59506 9.7116538e-21 3.4140269e-20 9.1240746e-11        1e-09 
  672000    256.05884 2.3229448e-21 3.4140441e-20 4.7356726e-11        1e-09 
  673000    226.80445 5.9718385e-21 3.4154228e-20 6.412262e-11        1e-09 
  674000    166.16121 1.3537178e-20 3.4184126e-20 1.0636863e-10        1e-09 
  675000    231.22926 5.4693752e-21 3.4201584e-20 6.0637802e-11        1e-09 
  676000    244.01823 3.9394145e-21 3.4260762e-20 5.7801634e-11        1e-09 
  677000    231.03188 5.609799e-21 3.4317482e-20 6.2125344e-11        1e-09 
  678000    251.53126 3.0598472e-21 3.4314753e-20 5.4032716e-11        1e-09 
  679000    226.19369 6.2586565e-21 3.4365153e-20 6.8114133e-11        1e-09 
  680000     247.3214 3.7104325e-21 3.4442227e-20 5.4993391e-11        1e-09 
  681000    240.19824 4.6313801e-21 3.4478061e-20 6.0538645e-11        1e-09 
  682000    263.64015 1.7177372e-21 3.4477276e-20 4.5059257e-11        1e-09 
  683000    241.32943 4.509898e-21 3.4497139e-20 6.0835957e-11        1e-09 
  684000    212.01218 8.1807146e-21 3.4525037e-20 7.3773184e-11        1e-09 
  685000    262.23454 1.9161275e-21 3.4501007e-20 4.805281e-11        1e-09 
  686000    239.28792 4.7864931e-21 3.452006e-20 5.9969691e-11        1e-09 
  687000     263.4387 1.8296317e-21 3.4564139e-20 4.5845571e-11        1e-09 
  688000    267.45435 1.2779478e-21 3.4511434e-20 4.6276302e-11        1e-09 
  689000    216.24187 7.6570298e-21 3.4526927e-20 8.1336763e-11        1e-09 
  690000    208.82289 8.6321234e-21 3.458015e-20 1.0029667e-10        1e-09 
  691000     244.5489 4.2431314e-21 3.463042e-20 5.7757653e-11        1e-09 
  692000    263.96255 1.8029376e-21 3.4602537e-20 4.5974212e-11        1e-09 
  693000    224.84996 6.7233374e-21 3.4662864e-20 6.8209611e-11        1e-09 
  694000    260.60887 2.2081923e-21 3.4591069e-20 4.5880666e-11        1e-09 
  695000    257.72376 2.5580413e-21 3.4582418e-20 4.8043391e-11        1e-09 
  696000    255.17858 2.8482045e-21 3.4556322e-20 5.0691319e-11        1e-09 
  697000    233.94005 5.5066017e-21 3.457565e-20 6.6090622e-11        1e-09 
  698000    252.34326 3.199487e-21 3.455529e-20 5.5423219e-11        1e-09 
  699000    241.98953 4.4691264e-21 3.4538391e-20 5.5856868e-11        1e-09 
  700000    252.25728 3.2060474e-21 3.4551168e-20 5.1337406e-11        1e-09 
  701000    170.95136 1.327509e-20 3.4517255e-20 1.1986604e-10        1e-09 
  702000    210.10932 8.3465928e-21 3.445447e-20 7.5349673e-11        1e-09 
  703000    243.21349 4.1463614e-21 3.4367714e-20 5.5094574e-11        1e-09 
  704000    235.72182 5.0399773e-21 3.4330426e-20 6.2665729e-11        1e-09 
  705000    227.93092 6.0456118e-21 3.4367974e-20 6.1624589e-11        1e-09 
  706000    248.36661 3.5328632e-21 3.4394535e-20 5.4262433e-11        1e-09 
  707000    221.25518 6.8483183e-21 3.4341162e-20 8.1543517e-11        1e-09 
  708000    194.57376 1.0181456e-20 3.4358906e-20 8.1350661e-11        1e-09 
  709000     227.7027 6.0579354e-21 3.4351939e-20 6.3699422e-11        1e-09 
  710000    218.08216 7.3333824e-21 3.4431952e-20 7.1492156e-11        1e-09 
  711000    255.54019 2.7112533e-21 3.4464303e-20 4.9998947e-11        1e-09 
  712000    251.45901 3.2540057e-21 3.4499934e-20 5.4659345e-11        1e-09 
  713000    268.90947 1.0837116e-21 3.4498009e-20 4.5830105e-11        1e-09 
  714000    215.59443 7.7047026e-21 3.4494151e-20 7.7825569e-11        1e-09 
  715000    244.50966 4.1336514e-21 3.4516063e-20 5.6862568e-11        1e-09 
  716000    203.81427 9.1777805e-21 3.4503443e-20 1.0069971e-10        1e-09 
  717000       253.55 3.0273534e-21 3.4533105e-20 5.2516678e-11        1e-09 
  718000    222.41924 6.8886196e-21 3.4526108e-20 7.3299788e-11        1e-09 
  719000    239.75626 4.814083e-21 3.4605845e-20 5.6872017e-11        1e-09 
  720000    259.40796 2.3525598e-21 3.4586213e-20 5.0232175e-11        1e-09 
  721000    236.55111 5.1732728e-21 3.4566767e-20 6.049803e-11        1e-09 
  722000    232.66917 5.6190833e-21 3.4530213e-20 6.3568214e-11        1e-09 
  723000    269.36606 1.0756474e-21 3.454668e-20 4.4077492e-11        1e-09 
  724000    216.56112 7.6372649e-21 3.4546833e-20 8.152777e-11        1e-09 
  725000    247.92082 3.6809626e-21 3.448724e-20 5.7054649e-11        1e-09 
  726000    242.05463 4.3955976e-21 3.4472951e-20 5.7896262e-11        1e-09 
  727000    194.61713 1.0314762e-20 3.4497602e-20 1.0763289e-10        1e-09 
  728000    179.08172 1.221635e-20 3.4468783e-20 1.0836702e-10        1e-09 
  729000    195.59282 1.0168398e-20 3.4472475e-20 1.4611997e-10        1e-09 
  730000    248.59829 3.5380318e-21 3.4428491e-20 5.5273495e-11        1e-09 
  731000    235.33431 5.1767467e-21 3.4419043e-20 6.3878587e-11        1e-09 
  732000    241.88297 4.351329e-21 3.4407352e-20 5.5897678e-11        1e-09 
  733000    260.28377 2.1142329e-21 3.4456714e-20 5.0034613e-11        1e-09 
  734000    229.65006 5.9605985e-21 3.4496579e-20 7.1268799e-11        1e-09 
  735000    207.66456 8.6611785e-21 3.4465273e-20 1.1370614e-10        1e-09 
  736000    239.02866 4.7983379e-21 3.449969e-20 5.8427003e-11        1e-09 
  737000    210.38454 8.4064905e-21 3.4548565e-20 1.1000876e-10        1e-09 
  738000    247.83728 3.7308344e-21 3.4526732e-20 5.4922674e-11        1e-09 
  739000    273.91413 4.7693681e-22 3.4513105e-20 3.7363392e-11        1e-09 
  740000    199.79374 9.6605566e-21 3.4486634e-20 8.5602943e-11        1e-09 
  741000    197.92206 9.8175017e-21 3.4411007e-20 8.2926445e-11        1e-09 
  742000    246.51205 3.7587068e-21 3.4389933e-20 5.7168583e-11        1e-09 
  743000    134.16935 1.7707688e-20 3.4379374e-20 1.3914283e-10        1e-09 
  744000    267.07153 1.2022085e-21 3.4388126e-20 4.7832041e-11        1e-09 
  745000     204.9197 8.965049e-21 3.442807e-20 1.0448812e-10        1e-09 
  746000    216.51186 7.5844579e-21 3.4487905e-20 7.4637102e-11        1e-09 
  747000    223.92002 6.6774402e-21 3.4501414e-20 7.1526832e-11        1e-09 
  748000    237.42549 5.0171921e-21 3.4519336e-20 6.3216657e-11        1e-09 
  749000    256.75343 2.6101281e-21 3.4513933e-20 5.136763e-11        1e-09 
  750000    264.45967 1.6227874e-21 3.4484159e-20 4.9041672e-11        1e-09 
  751000    256.65396 2.6391075e-21 3.4530552e-20 5.0546031e-11        1e-09 
  752000    209.07786 8.5408011e-21 3.452051e-20 8.5413039e-11        1e-09 
  753000    253.73139 2.9954896e-21 3.452378e-20 5.2420867e-11        1e-09 
  754000    276.37755 1.8716403e-22 3.4529434e-20 3.8560531e-11        1e-09 
  755000    210.51416 8.303043e-21 3.4461225e-20 7.7134361e-11        1e-09 
  756000    210.35851 8.3445866e-21 3.4483428e-20 8.0059881e-11        1e-09 
  757000    227.15025 6.2372133e-21 3.4462571e-20 6.9471455e-11        1e-09 
  758000    226.41477 6.2830128e-21 3.4416981e-20 6.7871645e-11        1e-09 
  759000    175.66185 1.2583019e-20 3.4410503e-20 1.2224144e-10        1e-09 
  760000    237.06422 4.9691675e-21 3.442642e-20 6.044624e-11        1e-09 
  761000    264.31468 1.6118499e-21 3.4455205e-20 4.4416478e-11        1e-09 
  762000    257.47058 2.5189779e-21 3.4511895e-20 4.7798804e-11        1e-09 
  763000    208.51916 8.5627673e-21 3.4473053e-20 7.2734669e-11        1e-09 
  764000      245.667 3.9332072e-21 3.4459429e-20 5.5311554e-11        1e-09 
  765000    248.01197 3.6822671e-21 3.4499872e-20 5.3664393e-11        1e-09 
  766000     260.5357 2.1199573e-21 3.4493743e-20 4.7079822e-11        1e-09 
  767000    203.20723 9.2412771e-21 3.449151e-20 7.7618058e-11        1e-09 
  768000    251.85294 3.2380468e-21 3.4532924e-20 5.1615745e-11        1e-09 
  769000    244.80802 4.1323132e-21  3.45518e-20 5.8564128e-11        1e-09 
  770000    256.51706 2.7106754e-21 3.4585109e-20 5.2309891e-11        1e-09 
  771000    209.78167 8.4752612e-21 3.4542425e-20 7.7857978e-11        1e-09 
  772000    245.64246 3.9703924e-21 3.4493565e-20 5.4539961e-11        1e-09 
  773000    237.75573 4.9153776e-21 3.4458557e-20 6.0973585e-11        1e-09 
  774000    203.96502 9.0973037e-21 3.4441699e-20 9.1912767e-11        1e-09 
  775000    235.86985 5.1030069e-21 3.4411849e-20 6.0736583e-11        1e-09 
  776000    260.55841 2.0571235e-21 3.443373e-20 4.6633875e-11        1e-09 
  777000    239.04994 4.6962525e-21 3.4400248e-20 6.0631032e-11        1e-09 
  778000    224.02329 6.5760581e-21 3.4412864e-20 6.8389803e-11        1e-09 
  779000    246.19912 3.7564862e-21 3.4348829e-20 5.160944e-11        1e-09 
  780000    258.70887 2.1939036e-21 3.434069e-20 4.5676869e-11        1e-09 
  781000    239.82516 4.5449441e-21 3.4345267e-20 6.297585e-11        1e-09 
  782000    252.34095 3.0001798e-21 3.4355697e-20 5.2329722e-11        1e-09 
  783000     214.4681 7.5748811e-21 3.4224373e-20 7.4693083e-11        1e-09 
  784000    214.05878 7.6259077e-21 3.4224539e-20 7.3095434e-11        1e-09 
  785000    249.47268 3.2617574e-21 3.4260867e-20 5.2196577e-11        1e-09 
  786000    208.09938 8.4606517e-21 3.4318775e-20 7.7865093e-11        1e-09 
  787000    243.55508 4.0379538e-21 3.4301752e-20 5.7542353e-11        1e-09 
  788000    216.27763 7.4374072e-21 3.4311749e-20 7.9222985e-11        1e-09 
  789000    219.80528 7.0281145e-21 3.4340797e-20 7.5361927e-11        1e-09 
  790000    228.47404 5.9248631e-21 3.4314713e-20 6.6957656e-11        1e-09 
  791000     214.1532 7.6984066e-21 3.430877e-20 7.4838792e-11        1e-09 
  792000    205.64951 8.7191731e-21 3.427288e-20 7.7358165e-11        1e-09 
  793000      256.589 2.3787087e-21 3.4262082e-20 4.8178517e-11        1e-09 
  794000    274.61655 1.5541297e-22 3.4278864e-20 3.6407744e-11        1e-09 
  795000    230.09672 5.7161674e-21 3.4307649e-20 6.6076719e-11        1e-09 
  796000    230.91875 5.6318411e-21 3.4325466e-20 6.2740658e-11        1e-09 
  797000    243.10004 4.1434799e-21 3.4350735e-20 5.7587224e-11        1e-09 
  798000    267.21502 1.175809e-21 3.4379556e-20 4.2484425e-11        1e-09 
  799000     224.1544 6.4502788e-21 3.4303377e-20 6.9894994e-11        1e-09 
  800000     226.5443 6.1049396e-21 3.4255003e-20 6.5775842e-11        1e-09 
  801000    270.74575 5.9057987e-22 3.423305e-20 4.0928011e-11        1e-09 
  802000    233.06197 5.2214495e-21 3.4181389e-20 6.3104108e-11        1e-09 
  803000     217.9653 7.187538e-21 3.4271587e-20 7.0673051e-11        1e-09 
  804000    250.11571 3.1635372e-21 3.4242549e-20 5.1370071e-11        1e-09 
  805000    221.13939 6.7832088e-21 3.4261666e-20 7.3401064e-11        1e-09 
  806000    243.67917 3.9805831e-21  3.42598e-20 5.2035323e-11        1e-09 
  807000    256.33409 2.3561665e-21 3.4207865e-20 4.6827595e-11        1e-09 
  808000    242.11954 4.0524818e-21 3.4137901e-20 5.6364928e-11        1e-09 
  809000    150.37837 1.5459114e-20 3.4144911e-20 1.4822312e-10        1e-09 
  810000    254.79398 2.5048968e-21 3.4165223e-20 4.7474777e-11        1e-09 
  811000    223.62584 6.2800927e-21 3.4067512e-20 7.1437018e-11        1e-09 
  812000    235.43577 4.8433745e-21 3.4098279e-20 5.9092521e-11        1e-09 
  813000    231.62217 5.2754114e-21 3.4056443e-20 6.2879763e-11        1e-09 
  814000    242.41462 3.9462099e-21 3.4068295e-20 5.3714683e-11        1e-09 
  815000    254.15246 2.5247722e-21 3.4105384e-20 4.8333477e-11        1e-09 
  816000    190.73993 1.0432071e-20 3.4133135e-20 8.4435806e-11        1e-09 
  817000    257.93585 2.0780988e-21 3.412883e-20 4.5055095e-11        1e-09 
  818000    249.36754 3.1447052e-21 3.4130751e-20 5.166815e-11        1e-09 
  819000     255.0903 2.4246835e-21 3.4121831e-20 5.2236732e-11        1e-09 
  820000    222.04213 6.4810055e-21 3.4071635e-20 6.5580282e-11        1e-09 
  821000    213.91964 7.4640122e-21 3.4045353e-20 7.6221423e-11        1e-09 
  822000    243.06017 3.7793463e-21 3.3981647e-20 5.5449292e-11        1e-09 
  823000     147.1395 1.5737307e-20 3.4020646e-20 1.3679945e-10        1e-09 
  824000    258.52022 1.8483873e-21 3.3971731e-20 4.539643e-11        1e-09 
  825000    233.40298 4.9386894e-21 3.3941003e-20 5.5923589e-11        1e-09 
  826000    237.72242 4.4411728e-21 3.3980213e-20 5.8290081e-11        1e-09 
  827000    226.81559 5.7844271e-21  3.39682e-20 6.1087269e-11        1e-09 
  828000    236.76972 4.5722168e-21 3.3992876e-20 5.8930152e-11        1e-09 
  829000    236.97463 4.6164604e-21 3.4062581e-20 5.7148796e-11        1e-09 
  830000    272.39005 2.1470942e-22 3.4061499e-20 3.630907e-11        1e-09 
  831000    249.57751 3.0596919e-21 3.4071828e-20 5.4844505e-11        1e-09 
  832000    231.47853 5.3475934e-21 3.4110777e-20 5.8007249e-11        1e-09 
  833000     253.0962 2.6373868e-21 3.408675e-20 4.8395423e-11        1e-09 
  834000    168.21735 1.3227099e-20 3.4129541e-20 1.0488381e-10        1e-09 
  835000    248.43505 3.272427e-21 3.4142602e-20 5.5573629e-11        1e-09 
  836000    249.16357 3.1368604e-21 3.409756e-20 5.3464111e-11        1e-09 
  837000    207.30788 8.3863858e-21 3.4146159e-20 7.3448941e-11        1e-09 
  838000    249.15912 3.185407e-21 3.4145554e-20 5.5362379e-11        1e-09 
  839000    215.25682 7.4574276e-21 3.4204924e-20 6.7465833e-11        1e-09 
  840000    272.06833 4.0413901e-22 3.4210951e-20 3.8671473e-11        1e-09 
  841000     268.3409 8.6732193e-22 3.4210969e-20 4.1464027e-11        1e-09 
  842000    212.22828 7.8451813e-21 3.4216357e-20 7.9696269e-11        1e-09 
  843000    227.19205 6.0073015e-21 3.4237853e-20 6.8520909e-11        1e-09 
  844000    247.67095 3.3835754e-21 3.4158805e-20 5.5193639e-11        1e-09 
  845000    229.62425 5.6472767e-21 3.418005e-20 6.1441241e-11        1e-09 
  846000    256.77753 2.3081927e-21 3.4214992e-20 4.6978575e-11        1e-09 
  847000    263.08215 1.537558e-21 3.4227761e-20 4.6707221e-11        1e-09 
  848000     183.5287 1.1358969e-20 3.4163976e-20 9.5742167e-11        1e-09 
  849000    245.35808 3.6317222e-21 3.4119558e-20 5.5205969e-11        1e-09 
  850000    179.10539 1.1849257e-20 3.410463e-20 9.6928077e-11        1e-09 
  851000    202.24656 9.0142305e-21 3.4145091e-20 8.0762913e-11        1e-09 
  852000     255.9312 2.3134371e-21 3.4115073e-20 4.8978046e-11        1e-09 
  853000    248.69606 3.3079344e-21 3.4210542e-20 5.4830971e-11        1e-09 
  854000    257.34671 2.2039246e-21 3.418145e-20 5.0025444e-11        1e-09 
  855000    234.06244 5.0600081e-21 3.4144264e-20 5.8865847e-11        1e-09 
  856000    205.83294 8.6176734e-21 3.4194173e-20 7.5165079e-11        1e-09 
  857000     174.5857 1.2583159e-20 3.4276923e-20 1.3232227e-10        1e-09 
  858000    248.98452 3.3646082e-21 3.430306e-20 5.3845672e-11        1e-09 
  859000    210.38069 8.1549338e-21 3.429653e-20 8.3196068e-11        1e-09 
  860000    244.91629 3.7911645e-21 3.4224104e-20 5.2316131e-11        1e-09 
  861000    227.04059 6.1377661e-21 3.4349498e-20 6.8089627e-11        1e-09 
  862000    227.89811 6.0777957e-21 3.4396082e-20 6.910386e-11        1e-09 
  863000    241.83556 4.3554291e-21 3.4405561e-20 5.9995942e-11        1e-09 
  864000    180.67404 1.1949739e-20 3.4400031e-20 1.0401777e-10        1e-09 
  865000    237.37638 4.9084383e-21 3.440448e-20 5.784489e-11        1e-09 
  866000    245.16441 3.975088e-21 3.4438858e-20 5.6317756e-11        1e-09 
  867000    259.33377 2.2357604e-21 3.4460195e-20 4.5764555e-11        1e-09 
  868000    227.63713 6.1724161e-21 3.4458272e-20 6.6442384e-11        1e-09 
  869000     255.3813 2.7417745e-21 3.4475081e-20 4.7671362e-11        1e-09 
  870000    232.69469 5.5524439e-21 3.4466746e-20 6.0425528e-11        1e-09 
  871000    233.47359 5.4457938e-21 3.4456881e-20 6.2136329e-11        1e-09 
  872000    258.34192 2.3491276e-21 3.4450316e-20 4.8313641e-11        1e-09 
  873000    236.96125 5.0496264e-21 3.4494085e-20 6.057359e-11        1e-09 
  874000    241.99708 4.4285275e-21 3.4498731e-20 5.7003316e-11        1e-09 
  875000    181.56784 1.1904775e-20 3.4466129e-20 9.9118608e-11        1e-09 
  876000    254.07009 2.857706e-21 3.4428084e-20 4.9462404e-11        1e-09 
  877000    243.33047 4.1666558e-21 3.4402543e-20 6.0216054e-11        1e-09 
  878000    251.00846 3.2298555e-21  3.44198e-20 5.4888733e-11        1e-09 
  879000    256.27084 2.6009607e-21  3.44448e-20 4.9191082e-11        1e-09 
  880000    225.77541 6.396802e-21 3.4451324e-20 6.6893969e-11        1e-09 
  881000    257.94054 2.3815543e-21 3.4432869e-20 5.0901684e-11        1e-09 
  882000    207.52631 8.6447538e-21 3.4431669e-20 7.7522046e-11        1e-09 
  883000    229.51747 5.8755813e-21 3.4395086e-20 6.2148968e-11        1e-09 
  884000    210.82364 8.1659322e-21 3.4362569e-20 8.2480021e-11        1e-09 
  885000    180.19607 1.2022182e-20 3.4413082e-20 1.1313148e-10        1e-09 
  886000    220.06234 7.0382857e-21 3.4382909e-20 6.9278783e-11        1e-09 
  887000     259.9227 2.0477633e-21 3.4345378e-20 4.6012314e-11        1e-09 
  888000    215.00276 7.5803264e-21 3.4296255e-20 7.5753166e-11        1e-09 
  889000    249.31892 3.3113326e-21 3.4291337e-20 5.0755693e-11        1e-09 
  890000    255.10998 2.6308529e-21 3.4330446e-20 5.1083594e-11        1e-09 
  891000    252.42482 2.9560086e-21 3.4321947e-20 5.1025808e-11        1e-09 
  892000    261.76367 1.8083047e-21 3.4334675e-20 4.4390791e-11        1e-09 
  893000    211.88378 8.0401448e-21 3.4368513e-20 7.6715183e-11        1e-09 
  894000    176.62457 1.2414797e-20 3.4361907e-20 1.3171472e-10        1e-09 
  895000     204.4373 8.9307294e-21 3.4333809e-20 9.9004207e-11        1e-09 
  896000    267.52925  1.04243e-21 3.4285223e-20 4.3778457e-11        1e-09 
  897000    257.63006 2.1910796e-21 3.4203814e-20 4.6865562e-11        1e-09 
  898000    202.34647 9.1010714e-21 3.4244348e-20 9.8758196e-11        1e-09 
  899000    244.63101 3.8516269e-21 3.4249118e-20 5.7596603e-11        1e-09 
  900000    200.65357 9.3180083e-21 3.4250927e-20 7.8555655e-11        1e-09 
  901000    248.09276 3.4576201e-21 3.4285263e-20 5.1348942e-11        1e-09 
  902000     268.1629 9.0005312e-22 3.4221583e-20 3.9787807e-11        1e-09 
  903000    203.40589 8.9661569e-21 3.4241075e-20 7.9067238e-11        1e-09 
  904000    194.85743 1.000221e-20 3.4214908e-20 9.9563659e-11        1e-09 
  905000    211.55947 7.8600163e-21 3.4148086e-20 7.5629968e-11        1e-09 
  906000    267.16097 9.3090916e-22 3.4127941e-20 4.1679115e-11        1e-09 
  907000    247.09426 3.365653e-21 3.4069224e-20 5.451136e-11        1e-09 
  908000    209.87429 8.0308827e-21 3.4109555e-20 8.4967791e-11        1e-09 
  909000    204.72194 8.6630463e-21 3.4101495e-20 7.8863189e-11        1e-09 
  910000    198.91902 9.3681232e-21 3.408551e-20 8.0323508e-11        1e-09 
  911000     268.3883 7.4281884e-22 3.4092356e-20 4.1116315e-11        1e-09 
  912000    224.58126 6.2777773e-21 3.4183916e-20 6.9202801e-11        1e-09 
  913000    244.69689 3.8003906e-21 3.4206069e-20 5.4717956e-11        1e-09 
  914000     255.5509 2.4361314e-21 3.4190512e-20 4.7204513e-11        1e-09 
  915000    218.83361 7.0256464e-21 3.421759e-20 7.3174938e-11        1e-09 
  916000    201.52575 9.1604958e-21 3.420179e-20 8.0457249e-11        1e-09 
  917000    262.34234 1.5988437e-21 3.4197118e-20 4.1743551e-11        1e-09 
  918000    247.04708 3.4928114e-21 3.419052e-20 4.9528541e-11        1e-09 
  919000    244.95117 3.6782372e-21 3.411551e-20 5.1814775e-11        1e-09 
  920000    232.18214 5.1853998e-21 3.4036013e-20 5.8798685e-11        1e-09 
  921000    246.37573 3.4212232e-21 3.4035511e-20 5.2773495e-11        1e-09 
  922000    261.62814 1.501198e-21 3.4010728e-20 4.4504764e-11        1e-09 
  923000    207.92715 8.239686e-21 3.4076409e-20 7.7649983e-11        1e-09 
  924000    199.00653 9.3250856e-21 3.4053345e-20 7.7483876e-11        1e-09 
  925000     238.6143 4.3895425e-21 3.4039406e-20 5.3081976e-11        1e-09 
  926000    223.31664 6.2929377e-21 3.4041937e-20 6.6337995e-11        1e-09 
  927000    218.94647 6.8558071e-21 3.4061775e-20 6.6556975e-11        1e-09 
  928000    245.25753 3.6095415e-21 3.4084883e-20 5.0578153e-11        1e-09 
  929000    245.80555 3.5175908e-21 3.4061028e-20 5.1558785e-11        1e-09 
  930000    258.15823 1.9944956e-21 3.4072859e-20 4.7646813e-11        1e-09 
  931000    237.31607 4.6163579e-21 3.4104905e-20  6.02223e-11        1e-09 
  932000    229.89098 5.511216e-21 3.4077133e-20 6.1560018e-11        1e-09 
  933000    256.13873 2.2288836e-21 3.4056307e-20 4.8340825e-11        1e-09 
  934000    238.76833 4.3579285e-21 3.4026932e-20 5.7978708e-11        1e-09 
  935000     236.5945 4.6174013e-21 3.4016287e-20 5.7750598e-11        1e-09 
  936000     194.4731 9.8649294e-21 3.4029872e-20 8.2902203e-11        1e-09 
  937000    255.88641 2.1978269e-21 3.3993897e-20 4.7086955e-11        1e-09 
  938000    247.51684 3.2174045e-21 3.3973485e-20 5.2948402e-11        1e-09 
  939000    247.39871 3.2808735e-21 3.4022276e-20 4.8471251e-11        1e-09 
  940000    263.62174 1.1991242e-21 3.3956376e-20 4.0650297e-11        1e-09 
  941000    184.24491 1.1027978e-20 3.3921981e-20 1.0930624e-10        1e-09 
  942000    271.53029 1.920073e-22 3.3931964e-20 3.7966466e-11        1e-09 
  943000    240.67772 4.0617871e-21 3.3968048e-20 5.3482249e-11        1e-09 
  944000    222.96985 6.2555039e-21 3.3961411e-20 6.452527e-11        1e-09 
  945000    224.05962 6.1675807e-21 3.4008901e-20 6.3419966e-11        1e-09 
  946000    228.54277 5.5583901e-21 3.395678e-20 7.1998562e-11        1e-09 
  947000    244.70434 3.5474645e-21 3.3954068e-20 5.0547129e-11        1e-09 
  948000    229.60455 5.4029547e-21 3.393328e-20 6.4302419e-11        1e-09 
  949000    228.50958 5.4935463e-21 3.3887812e-20 6.0277793e-11        1e-09 
  950000    201.29816 8.8731592e-21 3.3886173e-20 8.1427003e-11        1e-09 
  951000    227.10862 5.6228443e-21 3.3843029e-20 6.4626142e-11        1e-09 
  952000    195.64043 9.5204603e-21 3.3830454e-20 8.3850187e-11        1e-09 
  953000    266.77974 6.7765827e-22 3.3827318e-20 3.8884881e-11        1e-09 
  954000    247.77814 3.0522153e-21 3.3840765e-20 5.0500733e-11        1e-09 
  955000    257.18104 1.8406186e-21 3.3797558e-20 4.5934357e-11        1e-09 
  956000    189.65971 1.023487e-20 3.3801708e-20 8.5766525e-11        1e-09 
  957000     246.7608 3.1147619e-21 3.3776897e-20 5.2007206e-11        1e-09 
  958000    253.91772 2.1667277e-21 3.3718172e-20 4.4307539e-11        1e-09 
  959000    223.54842 5.9948645e-21 3.3772663e-20 6.3260104e-11        1e-09 
  960000    199.57255 9.0187583e-21 3.3817351e-20 7.6966611e-11        1e-09 
  961000    220.40323 6.4493465e-21 3.3836329e-20 6.5392959e-11        1e-09 
  962000    222.10624 6.2308155e-21 3.3829412e-20 6.4745855e-11        1e-09 
  963000    236.87311 4.4214593e-21 3.3854966e-20 5.6395057e-11        1e-09 
  964000    233.95278 4.8225744e-21 3.3893204e-20 6.2681264e-11        1e-09 
  965000    247.44749 3.1173802e-21 3.3864843e-20 5.0355262e-11        1e-09 
  966000    250.46103 2.7516055e-21 3.3873526e-20 5.2923096e-11        1e-09 
  967000    213.61565 7.2769687e-21 3.3820536e-20 6.9561201e-11        1e-09 
  968000     247.9522 3.0629318e-21 3.387311e-20 5.0329599e-11        1e-09 
  969000    243.47382 3.7019256e-21 3.3955626e-20 5.4042259e-11        1e-09 
  970000     231.2691 5.2528194e-21 3.3989979e-20 6.2566793e-11        1e-09 
  971000    236.26377 4.6739419e-21 3.4031731e-20 6.3994281e-11        1e-09 
  972000    216.51683 7.1197243e-21 3.4023789e-20 7.3925937e-11        1e-09 
  973000    251.54731 2.7336556e-21 3.3990557e-20 5.4555837e-11        1e-09 
  974000    251.39947 2.7455233e-21 3.3984053e-20 4.7730456e-11        1e-09 
  975000     249.8071 2.9279405e-21 3.3968605e-20 4.9430728e-11        1e-09 
  976000    257.63074 1.9529767e-21 3.3965796e-20 4.7344021e-11        1e-09 
  977000    256.77318 2.0565919e-21 3.3962852e-20 5.122433e-11        1e-09 
  978000     264.4975 1.0885424e-21 3.3954614e-20 4.5272809e-11        1e-09 
  979000     226.5711 5.7969167e-21 3.395031e-20 6.2553691e-11        1e-09 
  980000    237.69374 4.4402284e-21 3.3975704e-20 5.8362482e-11        1e-09 
  981000    195.67895 9.6968278e-21 3.4011608e-20 8.5941146e-11        1e-09 
  982000    260.24177 1.6816323e-21 3.4018893e-20 4.5125916e-11        1e-09 
  983000    255.93308 2.1824856e-21 3.3984355e-20 4.7752477e-11        1e-09 
  984000    209.20298 8.0189615e-21 3.4014217e-20 7.4844538e-11        1e-09 
  985000    243.99895 3.7157779e-21 3.403473e-20 5.6045149e-11        1e-09 
  986000    232.38459 5.1053583e-21 3.3981128e-20 5.8299071e-11        1e-09 
  987000    257.90105 1.9788496e-21 3.4025257e-20 4.5789918e-11        1e-09 
  988000    241.14128 4.0834307e-21 3.4047293e-20 5.5378225e-11        1e-09 
  989000    138.49686 1.6792963e-20 3.400238e-20 1.7850494e-10        1e-09 
  990000    235.67417 4.634564e-21 3.3919092e-20 5.4957187e-11        1e-09 
  991000     253.5357 2.3460462e-21 3.3850022e-20 4.6600577e-11        1e-09 
  992000    266.71306 6.8719023e-22 3.3828564e-20 4.2486563e-11        1e-09 
  993000     171.3915 1.2496253e-20 3.3793109e-20 1.3189363e-10        1e-09 
  994000    250.01047 2.7898179e-21 3.3855753e-20 4.9935938e-11        1e-09 
  995000    237.61992 4.3159329e-21 3.3842236e-20 6.038874e-11        1e-09 
  996000    260.54501 1.5761252e-21 3.3951066e-20 4.8181703e-11        1e-09 
  997000    247.42164 3.2026833e-21 3.3946935e-20 4.9328491e-11        1e-09 
  998000    221.83135 6.4619206e-21 3.4026359e-20 6.3324982e-11        1e-09 
  999000    257.56441 2.0291223e-21 3.4033699e-20 4.7487645e-11        1e-09 
 1000000    251.12671 2.7763032e-21 3.398094e-20 4.7287181e-11        1e-09 
 1001000    226.52123 5.8674417e-21 3.4014638e-20 6.6749365e-11        1e-09 
 1002000    249.42222 3.0050286e-21 3.3997869e-20 5.1122475e-11        1e-09 
 1003000    265.36054 1.058099e-21 3.4031411e-20 4.5416649e-11        1e-09 
 1004000       249.97 3.0567761e-21 3.4117683e-20 5.4301691e-11        1e-09 
 1005000     225.6496 6.0807264e-21 3.4119616e-20 6.926837e-11        1e-09 
 1006000    247.67611 3.3418628e-21 3.4117734e-20 5.1372547e-11        1e-09 
[...]
 2779000    216.84305 6.4864512e-21 3.3431052e-20 6.6819214e-11        1e-09 
 2780000    200.19346 8.593077e-21 3.3468823e-20 8.0988429e-11        1e-09 
 2781000    234.86582 4.2361651e-21 3.3420248e-20 5.4732046e-11        1e-09 
 2782000    224.39931 5.5705966e-21 3.3454126e-20 6.5165011e-11        1e-09 
 2783000    220.71048 6.0650644e-21 3.3490226e-20 6.5048126e-11        1e-09 
 2784000    231.23393 4.7381341e-21 3.3470924e-20 5.6776291e-11        1e-09 
 2785000    226.67122 5.2975928e-21 3.3463427e-20 5.8905827e-11        1e-09 
 2786000    217.95455 6.3707327e-21 3.3453447e-20 8.3516289e-11        1e-09 
 2787000    221.65969 5.9042807e-21 3.344739e-20 6.6148574e-11        1e-09 
 2788000    246.06905 2.8927137e-21 3.3468894e-20 4.8979604e-11        1e-09 
 2789000    199.03257 8.7448499e-21 3.3476346e-20 7.9972238e-11        1e-09 
 2790000    184.86821 1.0495155e-20 3.3466607e-20 9.7109183e-11        1e-09 
 2791000    252.40027 2.0838513e-21 3.3446739e-20 4.7239481e-11        1e-09 
 2792000    227.95039 5.1863924e-21 3.3511174e-20 6.1112678e-11        1e-09 
 2793000    229.13789 5.0960525e-21 3.3568392e-20 5.9410562e-11        1e-09 
 2794000    227.49928 5.2739289e-21 3.3542657e-20 5.8221188e-11        1e-09 
 2795000    219.87597 6.1799169e-21 3.3501383e-20 6.7809035e-11        1e-09 
 2796000    214.70234 6.8794848e-21 3.3558083e-20 6.9252193e-11        1e-09 
 2797000     208.4762 7.6364761e-21 3.3541423e-20 7.6222875e-11        1e-09 
 2798000    224.52871 5.6212326e-21 3.3520841e-20 6.3310325e-11        1e-09 
 2799000    218.01803 6.4269222e-21 3.3517523e-20 6.739472e-11        1e-09 
 2800000    217.84795 6.4815078e-21 3.3550975e-20 7.0650145e-11        1e-09 
 2801000    202.83259  8.32682e-21 3.3530501e-20 7.8055335e-11        1e-09 
 2802000    206.91141 7.8503595e-21 3.3560868e-20 9.7641577e-11        1e-09 
 2803000    223.39266 5.8060481e-21 3.3564493e-20 7.1104712e-11        1e-09 
 2804000    255.69376 1.8062901e-21 3.3578422e-20 4.3314893e-11        1e-09 
 2805000    246.76306 2.9270993e-21 3.3589516e-20 4.7485714e-11        1e-09 
 2806000    265.89897 4.9406909e-22 3.3534285e-20 3.6428367e-11        1e-09 
 2807000    234.93151 4.351501e-21 3.3543746e-20 5.820872e-11        1e-09 
 2808000    165.17116 1.3071437e-20 3.3595363e-20  1.24725e-10        1e-09 
 2809000    262.09284 9.8524709e-22 3.3552519e-20 4.1219031e-11        1e-09 
 2810000     214.1473 7.0274683e-21 3.3637098e-20 6.5494562e-11        1e-09 
 2811000    212.05649 7.3342303e-21 3.368406e-20 7.2374971e-11        1e-09 
 2812000    217.68135 6.7173859e-21 3.3766152e-20 6.5665888e-11        1e-09 
 2813000    236.12904 4.4508741e-21 3.3791922e-20 5.5561994e-11        1e-09 
 2814000    245.44893 3.3191289e-21 3.3818253e-20 5.015885e-11        1e-09 
 2815000    262.09525 1.2496182e-21 3.3817191e-20 4.4059449e-11        1e-09 
 2816000    195.22686 9.5853338e-21 3.3843937e-20 8.8451398e-11        1e-09 
 2817000    194.22544 9.7506012e-21 3.388477e-20 9.1714158e-11        1e-09 
 2818000    268.29204 6.5955076e-22 3.3997127e-20 4.0823101e-11        1e-09 
 2819000    211.34203 7.7755416e-21 3.4036593e-20 8.0345838e-11        1e-09 
 2820000    256.88424 2.1090271e-21 3.4029087e-20 4.9839777e-11        1e-09 
 2821000    214.97601 7.2904815e-21 3.4003085e-20 7.4003911e-11        1e-09 
 2822000    239.68975 4.2444106e-21 3.4027908e-20 5.3173245e-11        1e-09 
 2823000    251.98583 2.6492821e-21 3.3960672e-20 4.7767303e-11        1e-09 
 2824000    249.45846 3.0077301e-21 3.4005074e-20 4.8735587e-11        1e-09 
 2825000     217.3217 7.0213264e-21 3.4025403e-20 8.2647457e-11        1e-09 
 2826000    228.04908 5.6524135e-21 3.3989458e-20 6.1225848e-11        1e-09 
 2827000    233.00875 5.0601163e-21 3.4013442e-20 5.9921194e-11        1e-09 
 2828000    179.34975 1.1740868e-20 3.4026604e-20 8.7872665e-11        1e-09 
 2829000    240.23272 4.168656e-21 3.4019623e-20 5.2809523e-11        1e-09 
 2830000     220.5888 6.6970342e-21 3.4107076e-20 7.0551601e-11        1e-09 
 2831000    238.08604 4.5130114e-21 3.4097234e-20 5.7677244e-11        1e-09 
 2832000    265.57839 1.0979118e-21 3.4098294e-20 4.5537615e-11        1e-09 
 2833000    244.59628 3.6971734e-21 3.4090349e-20 5.3443079e-11        1e-09 
 2834000    203.69441 8.7902345e-21 3.4101004e-20 7.7888947e-11        1e-09 
 2835000    185.74568 1.1020788e-20 3.4101275e-20 1.0870327e-10        1e-09 
 2836000     257.6228 2.1407433e-21 3.4152575e-20 4.8128728e-11        1e-09 
 2837000    258.24776 2.1040308e-21 3.4193519e-20 4.6716491e-11        1e-09 
 2838000    234.50681 5.0422859e-21 3.4181759e-20 5.6809768e-11        1e-09 
 2839000    231.20139 5.444764e-21 3.4173511e-20 6.2871667e-11        1e-09 
 2840000     247.2909 3.4131824e-21 3.4141187e-20 5.2095916e-11        1e-09 
 2841000    215.45315 7.3301515e-21 3.4102045e-20 7.8709495e-11        1e-09 
 2842000    249.54047 3.1454196e-21 3.4152953e-20 5.1608989e-11        1e-09 
 2843000    208.61311 8.1683548e-21 3.4090315e-20 9.8978958e-11        1e-09 
 2844000    237.33394 4.6188171e-21 3.4109585e-20 5.5819661e-11        1e-09 
 2845000    241.73739 4.1002537e-21 3.4138188e-20 5.6917382e-11        1e-09 
 2846000    262.30143 1.5303002e-21 3.4123491e-20 4.3059502e-11        1e-09 
 2847000    219.23731 6.8491843e-21 3.4091291e-20 9.1578473e-11        1e-09 
 2848000    261.38365 1.689219e-21 3.4168368e-20 4.5334604e-11        1e-09 
 2849000    266.03268 1.0298069e-21 3.4086639e-20 4.372533e-11        1e-09 
 2850000    208.98734 8.0614578e-21 3.4029919e-20 8.3465731e-11        1e-09 
 2851000    261.17526 1.6080546e-21 3.4061311e-20 4.6800427e-11        1e-09 
 2852000    200.22501 9.1834751e-21 3.4063141e-20 8.8604805e-11        1e-09 
 2853000    257.50229 2.0458265e-21 3.4042684e-20 4.6052565e-11        1e-09 
 2854000    234.18667 4.9381125e-21 3.4037805e-20 5.912806e-11        1e-09 
 2855000    166.95415 1.3294903e-20 3.4040382e-20 1.0432107e-10        1e-09 
 2856000    224.31296 6.1947981e-21 3.4067598e-20 6.9845366e-11        1e-09 
 2857000    251.38043 2.7851017e-21 3.4021265e-20 4.9770558e-11        1e-09 
 2858000    229.41558 5.5119782e-21 3.4018822e-20 6.1795978e-11        1e-09 
 2859000    260.58745 1.5847173e-21 3.3964932e-20 4.5261441e-11        1e-09 
 2860000      238.348 4.3947017e-21 3.4011476e-20 5.7045791e-11        1e-09 
 2861000    242.03728 3.8764113e-21 3.3951609e-20 5.6309464e-11        1e-09 
 2862000    221.71793 6.3573627e-21 3.3907708e-20 7.5547824e-11        1e-09 
 2863000    222.23839 6.2966674e-21 3.3911684e-20 6.2366542e-11        1e-09 
 2864000    264.99726 8.4490129e-22 3.3773072e-20 4.1113998e-11        1e-09 
 2865000    204.76857 8.317336e-21 3.3761578e-20 7.9574216e-11        1e-09 
 2866000    229.46854 5.2817192e-21 3.3795144e-20 6.0217742e-11        1e-09 
 2867000    234.16685 4.7420967e-21 3.3839326e-20 5.7302651e-11        1e-09 
 2868000     215.0817 7.1142947e-21 3.3840032e-20 7.9951295e-11        1e-09 
 2869000    254.33666 2.2481895e-21 3.3851691e-20 4.6572736e-11        1e-09 
 2870000    255.53742 2.1069972e-21 3.3859703e-20 4.7538907e-11        1e-09 
 2871000    251.36134 2.6419749e-21 3.3875768e-20 4.8009904e-11        1e-09 
 2872000    196.53924 9.4150607e-21 3.3836739e-20 9.2118902e-11        1e-09 
 2873000    216.19415 6.9860609e-21 3.385003e-20 8.7220554e-11        1e-09 
 2874000    251.20166 2.6397597e-21 3.385371e-20 4.7574066e-11        1e-09 
 2875000    158.09246 1.4234193e-20 3.387853e-20 1.1828403e-10        1e-09 
 2876000     221.8202 6.3227307e-21 3.3885784e-20 6.4996758e-11        1e-09 
 2877000     225.7397 5.8650766e-21 3.3915161e-20 6.6477296e-11        1e-09 
 2878000    233.59854 4.8305386e-21 3.3857151e-20 6.1171277e-11        1e-09 
 2879000    253.29715 2.4435555e-21 3.3917888e-20 4.7232639e-11        1e-09 
 2880000     258.0828 1.7990051e-21 3.3867996e-20 4.8574107e-11        1e-09 
 2881000    264.85569 9.6113616e-22 3.3871716e-20 3.985257e-11        1e-09 
 2882000    181.20848 1.1319568e-20 3.3836269e-20 8.903742e-11        1e-09 
 2883000    224.55144 5.8978312e-21 3.3800265e-20 6.3576986e-11        1e-09 
 2884000    260.47159 1.5199552e-21 3.3885774e-20 4.3103188e-11        1e-09 
 2885000    226.46292 5.7620942e-21 3.3902045e-20 6.2428955e-11        1e-09 
 2886000    242.09208 3.7798412e-21 3.3861849e-20 5.3730786e-11        1e-09 
 2887000    268.50508 4.9063099e-22 3.3854679e-20 3.6739928e-11        1e-09 
 2888000     260.4999 1.4920669e-21 3.3861403e-20 4.4292162e-11        1e-09 
 2889000    261.89215 1.2650306e-21 3.3807366e-20 4.2498824e-11        1e-09 
 2890000    220.14274 6.4647455e-21 3.381936e-20 6.8954468e-11        1e-09 
 2891000    262.41222 1.2178817e-21 3.382484e-20 4.0273994e-11        1e-09 
 2892000    189.63316 1.0180871e-20 3.374441e-20 8.3462046e-11        1e-09 
 2893000    236.69805 4.2877375e-21 3.3699491e-20 5.635638e-11        1e-09 
 2894000    238.03373 4.1252934e-21 3.3703016e-20 5.6651761e-11        1e-09 
 2895000    237.44072 4.1535605e-21 3.3657596e-20 5.7383069e-11        1e-09 
 2896000    218.50491 6.5188577e-21 3.3669958e-20 6.5192495e-11        1e-09 
 2897000    227.72314 5.3686081e-21 3.3665153e-20 6.256591e-11        1e-09 
 2898000    193.36767 9.6249365e-21 3.365252e-20 8.2324839e-11        1e-09 
 2899000    225.52716 5.6342708e-21 3.3657946e-20 6.5342378e-11        1e-09 
 2900000    232.47429 4.6939944e-21 3.3580909e-20 5.993555e-11        1e-09 
 2901000    240.79997 3.7013468e-21 3.3622798e-20 5.7963449e-11        1e-09 
 2902000    237.27465 4.168765e-21 3.3652166e-20 5.636646e-11        1e-09 
 2903000    210.53761 7.5867796e-21 3.3747875e-20 6.852571e-11        1e-09 
 2904000    245.34443 3.2593745e-21 3.3745514e-20 5.2558653e-11        1e-09 
 2905000    236.25292 4.3978124e-21 3.3754255e-20 5.7798522e-11        1e-09 
 2906000    199.54259 8.869336e-21 3.3664206e-20 8.9058062e-11        1e-09 
 2907000    215.58398 6.8474644e-21 3.3635614e-20 7.1519852e-11        1e-09 
 2908000    223.84948 5.8090206e-21 3.3624229e-20 6.4047446e-11        1e-09 
 2909000    210.67439 7.4399382e-21 3.3618029e-20 7.2658142e-11        1e-09 
 2910000    212.93918 7.1733489e-21 3.3632859e-20 6.5927619e-11        1e-09 
 2911000    216.35101 6.7774783e-21 3.3660938e-20 6.5460345e-11        1e-09 
 2912000    194.97385 9.4584271e-21 3.3685592e-20 9.2045471e-11        1e-09 
 2913000    236.68209 4.2531797e-21 3.366295e-20 5.3071867e-11        1e-09 
 2914000    255.08248 1.9706024e-21 3.3666777e-20 4.2371138e-11        1e-09 
 2915000     212.9846 7.2291232e-21 3.3694277e-20 7.5068271e-11        1e-09 
 2916000     222.5733 5.9861557e-21 3.3642789e-20 6.3622268e-11        1e-09 
 2917000     213.3296 7.1854691e-21 3.3693492e-20 7.1313347e-11        1e-09 
 2918000    251.34811 2.3804527e-21 3.3612601e-20 4.6092116e-11        1e-09 
 2919000    230.30903 4.9517994e-21 3.3569663e-20 5.8277555e-11        1e-09 
 2920000    228.87176 5.112585e-21 3.3551854e-20 6.2185758e-11        1e-09 
 2921000    245.90406 2.9722534e-21 3.3527931e-20 5.0343869e-11        1e-09 
 2922000    250.03928 2.4808069e-21 3.3550322e-20 5.0122867e-11        1e-09 
 2923000    241.83507 3.4460869e-21 3.3496159e-20 5.4378615e-11        1e-09 
 2924000    215.53321 6.6458215e-21 3.3427663e-20 7.8907044e-11        1e-09 
 2925000    239.56009 3.621464e-21 3.338885e-20 5.1173972e-11        1e-09 
 2926000    235.01944 4.1961159e-21 3.3399287e-20 5.7949029e-11        1e-09 
 2927000    230.71341 4.782356e-21 3.3450466e-20 5.5691353e-11        1e-09 
 2928000    220.70553 6.0332084e-21 3.3457755e-20 7.0651212e-11        1e-09 
 2929000    214.90666 6.7297078e-21 3.3433694e-20 6.5725422e-11        1e-09 
 2930000    243.06316 3.2406648e-21 3.3443337e-20 5.3626808e-11        1e-09 
 2931000    233.91653 4.4260243e-21 3.349215e-20 5.4139936e-11        1e-09 
 2932000    227.04822 5.2432057e-21 3.3455885e-20 6.708309e-11        1e-09 
 2933000    212.79524 7.0081238e-21 3.3449749e-20 7.7599933e-11        1e-09 
 2934000    220.53795 6.0510735e-21 3.3454796e-20 7.0147712e-11        1e-09 
 2935000    185.98994 1.028491e-20 3.3395748e-20 8.6921577e-11        1e-09 
 2936000    238.72367 3.7581849e-21 3.3421639e-20 5.5195697e-11        1e-09 
 2937000    251.98914 2.1330217e-21 3.3444824e-20 4.8803422e-11        1e-09 
 2938000    228.27558 5.1590661e-21 3.3524256e-20 6.345955e-11        1e-09 
 2939000    211.57903 7.2079991e-21  3.34985e-20 7.1427638e-11        1e-09 
 2940000    206.96116 7.7852948e-21 3.3501985e-20 7.5931627e-11        1e-09 
 2941000    206.75849 7.7247979e-21 3.3416305e-20 7.895438e-11        1e-09 
 2942000    253.60903 1.9290121e-21 3.3442098e-20 4.7088781e-11        1e-09 
 2943000    235.89618 4.0852562e-21 3.339737e-20 5.6370978e-11        1e-09 
 2944000    263.33436 7.0247458e-22 3.3424017e-20 3.8541886e-11        1e-09 
 2945000    229.88629 4.8572407e-21 3.3422575e-20 5.8680248e-11        1e-09 
 2946000    249.05645 2.5083143e-21 3.3455705e-20 4.8229841e-11        1e-09 
 2947000    227.11138 5.1855089e-21 3.3406036e-20 6.386395e-11        1e-09 
 2948000    220.26456 6.0694123e-21 3.3439164e-20 7.0009825e-11        1e-09 
 2949000    238.15632 3.7957425e-21 3.3388699e-20 5.1540323e-11        1e-09 
 2950000    245.46353 2.8282217e-21 3.3329161e-20 4.7659869e-11        1e-09 
 2951000    260.41386 9.5016606e-22 3.3308811e-20 4.0831291e-11        1e-09 
 2952000    228.14703 4.9927179e-21 3.3341934e-20 5.7702301e-11        1e-09 
 2953000    261.81244 8.2919552e-22 3.3361626e-20 4.2349987e-11        1e-09 
 2954000    151.00435 1.4575951e-20 3.3339531e-20 1.1154641e-10        1e-09 
 2955000    242.65269 3.2152865e-21 3.3366955e-20 5.2595227e-11        1e-09 
 2956000    247.91624 2.5869672e-21 3.3392676e-20 4.6658952e-11        1e-09 
 2957000     220.5535 6.0808915e-21 3.3486546e-20 6.2031023e-11        1e-09 
 2958000    226.96627 5.240094e-21 3.344259e-20 5.7161793e-11        1e-09 
 2959000    256.51183 1.5649104e-21 3.3438694e-20 4.4190508e-11        1e-09 
 2960000    239.69479 3.719532e-21 3.3503655e-20 5.4975716e-11        1e-09 
 2961000    250.99796 2.3514769e-21 3.3540116e-20 4.9524688e-11        1e-09 
 2962000    198.43715 8.828581e-21 3.3486091e-20 7.5751247e-11        1e-09 
 2963000    254.84617 1.8290839e-21 3.3495896e-20 4.8402253e-11        1e-09 
 2964000    169.17431 1.2459757e-20 3.3481109e-20 1.1150445e-10        1e-09 
 2965000    183.41372 1.0699162e-20 3.3489882e-20 9.8455971e-11        1e-09 
 2966000    201.00525 8.5517438e-21 3.3528362e-20 7.5281003e-11        1e-09 
 2967000    229.04253 5.0706234e-21 3.3531113e-20 6.0051579e-11        1e-09 
 2968000    248.05594 2.690842e-21 3.351391e-20 4.9596671e-11        1e-09 
 2969000    225.04027 5.4911543e-21 3.3454328e-20 6.7175854e-11        1e-09 
 2970000    215.10446 6.6662047e-21 3.339477e-20 7.080823e-11        1e-09 
 2971000     219.4884 6.1862978e-21 3.3459605e-20 6.5961299e-11        1e-09 
 2972000    221.98557 5.9605301e-21 3.3544132e-20 6.4709948e-11        1e-09 
 2973000    232.97179 4.5507653e-21 3.3499499e-20 5.890844e-11        1e-09 
 2974000    195.90247 9.1707346e-21 3.3513289e-20 8.4635145e-11        1e-09 
 2975000     267.9079 3.1536165e-22 3.3605206e-20 3.7874068e-11        1e-09 
 2976000    223.31378 5.8360643e-21 3.3584708e-20 6.1658627e-11        1e-09 
 2977000    223.02192 5.9081155e-21 3.3620493e-20 6.1412064e-11        1e-09 
 2978000    197.64544  9.04705e-21 3.3606183e-20 8.1684023e-11        1e-09 
 2979000    243.26222 3.4015833e-21 3.362899e-20 5.1192824e-11        1e-09 
 2980000     266.1512 4.9727203e-22 3.356883e-20 4.1855458e-11        1e-09 
 2981000    235.94928 4.2322305e-21 3.3550942e-20 5.5626297e-11        1e-09 
 2982000    201.37511 8.5412144e-21 3.356379e-20 8.5217638e-11        1e-09 
 2983000    246.22665 2.9650335e-21 3.3560796e-20 5.2223658e-11        1e-09 
 2984000    195.05441 9.2990498e-21 3.3536225e-20 1.2360744e-10        1e-09 
 2985000    251.76586 2.2474439e-21 3.3531501e-20 4.6098253e-11        1e-09 
 2986000    253.87205 1.9872974e-21 3.3533067e-20 4.5650078e-11        1e-09 
 2987000    233.08768 4.5262478e-21 3.3489382e-20 5.8882966e-11        1e-09 
 2988000     224.2339 5.6576884e-21 3.3520665e-20 6.4994304e-11        1e-09 
 2989000    263.65882 7.606323e-22 3.3522491e-20 3.8861945e-11        1e-09 
 2990000    256.56771 1.5890599e-21 3.3469787e-20 4.0980565e-11        1e-09 
 2991000    245.30039 2.9981696e-21 3.3478837e-20 4.9133874e-11        1e-09 
 2992000    211.65336 7.2044742e-21 3.3504211e-20 6.6524845e-11        1e-09 
 2993000    243.73006 3.2430365e-21 3.3528577e-20 5.0977517e-11        1e-09 
 2994000    255.22327   1.8187e-21 3.353237e-20 4.6951998e-11        1e-09 
 2995000    218.84396 6.3743675e-21 3.3567598e-20 6.7564346e-11        1e-09 
 2996000    248.16342 2.781284e-21 3.3617707e-20 4.7738286e-11        1e-09 
 2997000    238.36894 3.9099825e-21 3.3529358e-20 5.6335064e-11        1e-09 
 2998000    220.88695 6.1234883e-21 3.3570577e-20 6.430274e-11        1e-09 
 2999000    207.25154 7.8026069e-21 3.355538e-20 8.4023836e-11        1e-09 
 3000000    235.85506 4.1903472e-21 3.3497351e-20 5.8557793e-11        1e-09 
 3001000    247.31548 2.7635038e-21 3.3494564e-20 4.6441183e-11        1e-09 
 3002000    267.61107 2.0850882e-22 3.3461468e-20 3.5696324e-11        1e-09 
 3003000    257.85398 1.4514824e-21 3.349204e-20 4.4096643e-11        1e-09 
 3004000    234.43939 4.3324302e-21 3.3463526e-20 5.7356988e-11        1e-09 
 3005000    238.12909 3.8568661e-21 3.3446438e-20 5.2357759e-11        1e-09 
 3006000    216.35856 6.5765054e-21 3.3460903e-20 7.0023003e-11        1e-09 
 3007000    235.91917 4.0745678e-21 3.3389538e-20 5.0865992e-11        1e-09 
 3008000    226.20555 5.2952421e-21 3.3403212e-20 6.2011605e-11        1e-09 
 3009000    207.58784 7.6156076e-21 3.3410169e-20 7.236553e-11        1e-09 
 3010000    249.14271 2.4566454e-21 3.3414754e-20 5.2101826e-11        1e-09 
 3011000    234.33927 4.3530596e-21 3.3471714e-20 5.4800493e-11        1e-09 
 3012000    229.57276 4.9171924e-21 3.3443568e-20 6.0504703e-11        1e-09 
 3013000     253.7637 1.9349016e-21 3.3467208e-20 4.7018061e-11        1e-09 
 3014000    208.91041 7.4981996e-21 3.3457101e-20 7.0487807e-11        1e-09 
 3015000    226.02411 5.3544861e-21 3.3439911e-20 6.511511e-11        1e-09 
 3016000    216.60377 6.4800582e-21 3.3394926e-20 6.3367013e-11        1e-09 
 3017000    228.65591 4.9761733e-21 3.3388622e-20 6.0319355e-11        1e-09 
 3018000    227.82577 4.9938307e-21 3.3303127e-20 5.9902407e-11        1e-09 
 3019000    240.46191 3.4156308e-21 3.3295076e-20 5.4296513e-11        1e-09 
 3020000    245.29815 2.8426385e-21 3.3323028e-20 4.8867593e-11        1e-09 
 3021000    235.55838 4.1781566e-21 3.3448296e-20 5.5204192e-11        1e-09 
 3022000     261.9413 8.8140141e-22 3.3429844e-20 4.4311272e-11        1e-09 
 3023000    202.60154 8.2246838e-21 3.3399655e-20 8.9928976e-11        1e-09 
 3024000    239.07215 3.6520323e-21 3.3358788e-20 5.2790418e-11        1e-09 
 3025000    156.63902 1.3892967e-20 3.3356703e-20 1.3122313e-10        1e-09 
 3026000    241.10029 3.3559677e-21 3.3314737e-20 5.3510642e-11        1e-09 
 3027000     235.1868 4.1095096e-21 3.3333477e-20 5.4641941e-11        1e-09 
 3028000    234.63517 4.1479717e-21 3.3303395e-20 5.3454396e-11        1e-09 
 3029000    242.97484 3.081995e-21 3.3273693e-20 5.0358538e-11        1e-09 
 3030000    236.22608 3.8887426e-21 3.3241849e-20 5.2569269e-11        1e-09 
 3031000    251.50973 1.9811296e-21 3.3233361e-20 4.2373398e-11        1e-09 
 3032000    206.58254 7.5757133e-21 3.3245357e-20 7.701773e-11        1e-09 
 3033000    261.63252 7.565034e-22 3.3266578e-20 4.0332949e-11        1e-09 
 3034000    225.38415 5.2777046e-21 3.328361e-20 6.0190542e-11        1e-09 
 3035000    220.73265 5.8375379e-21 3.3265454e-20 6.0667096e-11        