LAMMPS (16 Feb 2016)
# Big colloid particles and small LJ particles

units		si
atom_style	atomic
dimension	2

lattice		sq 10e-6 # lattice & latice constant
Lattice spacing in x,y,z = 1e-05 1e-05 1e-05
region		box block 0 5 0 2 -0.5 0.5
create_box	1 box
Created orthogonal box = (0 0 -5e-06) to (5e-05 2e-05 5e-06)
  1 by 1 by 1 MPI processor grid
create_atoms	1 box
Created 10 atoms

#set		group all type/fraction 2 0.96 23984

#set		type 1 mass 1e-9
#set		type 2 mass 1
mass 1 1e-9

velocity	all create 300 87287 loop geom

# multi neighbor and comm for efficiency

neighbor	5e-6 bin
#neigh_modify	delay 0
#comm_modify     mode multi

# colloid potential

pair_style	dlvo 2.5e-6# cutoff
pair_coeff	1 1  1.3e-20 2.7e-6 8.15e-12 104022291 0.0828
# hamaker radius psi debyeinv springk
dielectric 	80
pair_modify	shift yes

#fix		1 all npt temp 300 300 1 iso 0.002 0.002 10 #mtk no pchain 0 tchain 1
fix		1 all nve
fix		2 all enforce2d

dump		1 all custom 10000 dump.dlvo.lammpstrj id x y z vx vy vz fx fy fz
#dump_modify 	1 scale no

#dump		2 all image 1000 image.*.jpg type type #		zoom 1.5 center d 0.5 0.5 0.5
#dump_modify	2 pad 5 adiam 1 5.0 adiam 2 1.5

#dump		3 all movie 1000 movie.mpg type type #		zoom 1.5 center d 0.5 0.5 0.5
#dump_modify	3 pad 5 adiam 1 5.0 adiam 2 1.5

thermo_style	custom step temp epair etotal press vol
thermo		1000

timestep	20e-3

run		10000000
Neighbor list info ...
  1 neighbor list requests
  update every 1 steps, delay 10 steps, check yes
  max neighbors/atom: 2000, page size: 100000
  master list distance cutoff = 1.29e-05
  ghost atom cutoff = 1.29e-05
  binsize = 6.45e-06 -> bins = 8 4 2
Memory usage per processor = 3.47686 Mbytes
Step Temp E_pair TotEng Press Volume 
       0          300            0 3.7277561e-20 3.7277561e-11        1e-09 
    1000    216.37788 1.0437162e-20 3.7323961e-20 9.2526086e-11        1e-09 
    2000     285.0331 1.9940671e-21 3.7411863e-20 4.7766178e-11        1e-09 
    3000    245.45801 6.7771336e-21 3.7277387e-20 6.9133374e-11        1e-09 
    4000    291.71915 1.1517545e-21 3.7400349e-20 4.7038755e-11        1e-09 
    5000    284.31316 1.9345116e-21 3.7262849e-20 4.9422293e-11        1e-09 
    6000    221.51187  9.80986e-21  3.73346e-20 9.3849016e-11        1e-09 
    7000    260.87163 4.9632279e-21 3.7378755e-20 6.2407305e-11        1e-09 
    8000    279.16659 2.5838575e-21 3.7272689e-20 5.4401356e-11        1e-09 
    9000    265.95019 4.5222124e-21 3.7568794e-20 6.2834425e-11        1e-09 
   10000    230.75269 8.8327725e-21 3.7505764e-20 8.8411997e-11        1e-09 
   11000    260.75953 5.2624773e-21 3.7664074e-20 6.8060105e-11        1e-09 
   12000    280.77383 2.796217e-21 3.7684763e-20 5.4019455e-11        1e-09 
   13000     241.6482 7.5893158e-21 3.7616168e-20 7.5379617e-11        1e-09 
   14000    259.18323 5.2981436e-21 3.7503872e-20 6.4432661e-11        1e-09 
   15000    295.11753 7.7620716e-22 3.7447079e-20 4.4488954e-11        1e-09 
   16000    282.74715 2.3294122e-21 3.7463159e-20 5.193084e-11        1e-09 
   17000    273.32896 3.5163016e-21 3.7479758e-20 5.4530931e-11        1e-09 
   18000    215.50259 1.0481865e-20 3.7259901e-20 1.0193978e-10        1e-09 
   19000    258.19215 5.0283133e-21 3.7110892e-20 6.6863476e-11        1e-09 
   20000    253.11111 5.7256115e-21 3.7176827e-20 6.4034946e-11        1e-09 
   21000    270.64917 3.5175086e-21 3.7147978e-20 5.9958608e-11        1e-09 
   22000    268.31549 3.7999741e-21 3.7140463e-20 5.9785746e-11        1e-09 
   23000    227.47995 8.8621426e-21 3.7128468e-20 8.7807927e-11        1e-09 
   24000    248.00398 6.0169889e-21 3.6833601e-20 6.3735485e-11        1e-09 
   25000    218.02591 1.0050003e-20 3.7141584e-20 1.0096489e-10        1e-09 
   26000    245.15097 6.475718e-21 3.6937818e-20 7.3296545e-11        1e-09 
   27000    258.84802 4.7972717e-21 3.6961348e-20 6.1368775e-11        1e-09 
   28000    239.64246 7.0945418e-21 3.6872164e-20 7.8777884e-11        1e-09 
   29000     199.6312 1.1951051e-20 3.6756931e-20 1.0649655e-10        1e-09 
   30000    211.18064 1.0538654e-20 3.6779651e-20 1.0613443e-10        1e-09 
   31000    267.54561 3.4836671e-21 3.6728493e-20 5.5801882e-11        1e-09 
   32000    248.74458 5.9465549e-21 3.6855193e-20 6.5949696e-11        1e-09 
   33000    213.16366 1.0494677e-20 3.698208e-20 1.0600108e-10        1e-09 
   34000    280.06129 2.2171729e-21 3.7017179e-20 4.8479325e-11        1e-09 
   35000    272.14543 3.2404218e-21 3.7056815e-20 5.6309661e-11        1e-09 
   36000    247.85401 6.1902651e-21 3.6988241e-20 6.9099432e-11        1e-09 
   37000     233.7823 8.197215e-21 3.7246662e-20 9.0569977e-11        1e-09 
   38000    244.48658 6.8757637e-21 3.7255308e-20 7.0280272e-11        1e-09 
   39000    268.98364 3.6750105e-21 3.7098524e-20 5.5686334e-11        1e-09 
   40000    276.38652 2.6044546e-21 3.6947839e-20 5.124625e-11        1e-09 
   41000     276.8557 2.4179324e-21 3.6819616e-20 4.9294135e-11        1e-09 
   42000    262.83112 4.3693526e-21 3.7028362e-20 5.7810583e-11        1e-09 
   43000    233.90932 6.2633477e-21 3.5328577e-20 6.9117226e-11        1e-09 
   44000    250.78149 4.0156768e-21 3.5177417e-20 5.7337243e-11        1e-09 
   45000    218.96922 7.9932251e-21 3.5202019e-20 9.0406058e-11        1e-09 
   46000    232.47938 6.1400437e-21 3.5027591e-20 6.1878527e-11        1e-09 
   47000    251.55184 3.5887627e-21 3.4846226e-20 5.7708721e-11        1e-09 
   48000    220.82032 7.3626733e-21 3.4801483e-20 7.0120839e-11        1e-09 
   49000    204.35761 9.617298e-21 3.5010475e-20 9.4231447e-11        1e-09 
   50000    229.56365 6.8331597e-21 3.5358403e-20 6.8582184e-11        1e-09 
   51000    222.10025 7.6934634e-21 3.5291315e-20 8.3718183e-11        1e-09 
   52000    230.83084 6.4830201e-21 3.5165722e-20 7.1521842e-11        1e-09 
   53000    233.63692 6.0032483e-21 3.503463e-20 6.3262781e-11        1e-09 
   54000     187.3178 1.180019e-20 3.5076026e-20 9.7293906e-11        1e-09 
   55000    256.63185 3.244589e-21 3.5133287e-20 5.5770342e-11        1e-09 
   56000    259.10123 2.9518338e-21 3.5147373e-20 5.2793881e-11        1e-09 
   57000    207.26506 9.508118e-21 3.5262571e-20 8.6616458e-11        1e-09 
   58000    261.81114 2.782964e-21 3.5315233e-20 5.2921229e-11        1e-09 
   59000    219.53013 7.9103538e-21 3.5188846e-20 8.3145299e-11        1e-09 
   60000    238.19433 5.6707296e-21 3.5268409e-20 6.1606812e-11        1e-09 
   61000    236.55061 5.7932692e-21 3.5186702e-20 6.4916561e-11        1e-09 
   62000    253.59741 3.6418578e-21  3.51535e-20 5.8545287e-11        1e-09 
   63000    229.11686 6.7846157e-21 3.5254342e-20 6.7253648e-11        1e-09 
   64000    258.45724 3.2222824e-21  3.53378e-20 5.1634233e-11        1e-09 
   65000     222.2774 7.6654272e-21 3.5285292e-20 7.9539474e-11        1e-09 
   66000    266.32553 2.1364639e-21 3.5229685e-20 4.4584893e-11        1e-09 
   67000    259.49653 2.8822791e-21 3.5126937e-20 5.2832911e-11        1e-09 
   68000    252.21182 3.6003471e-21 3.4939818e-20 5.3631346e-11        1e-09 
   69000    264.78571 2.1494182e-21 3.5051302e-20 4.7714141e-11        1e-09 
   70000    231.43278 6.3513745e-21 3.5108873e-20 6.6403653e-11        1e-09 
   71000    218.16622 8.1325065e-21 3.5241521e-20 9.2482977e-11        1e-09 
   72000    235.55092 6.1098155e-21 3.5379028e-20 7.1841806e-11        1e-09 
   73000    231.68305 6.4485578e-21 3.5237154e-20 7.4618875e-11        1e-09 
   74000    259.11288 3.1915857e-21 3.5388572e-20 5.3814524e-11        1e-09 
   75000    231.92448 6.5798784e-21 3.5398475e-20 6.7034286e-11        1e-09 
   76000    254.45725 4.0527912e-21 3.5671277e-20 6.2036021e-11        1e-09 
   77000    239.72118 5.8046342e-21 3.5592037e-20  6.43186e-11        1e-09 
   78000    215.13274 8.9612934e-21 3.5693372e-20 9.2398517e-11        1e-09 
   79000    271.04961 2.1517806e-21 3.5832009e-20 4.9767786e-11        1e-09 
   80000    279.14563 1.005343e-21 3.569157e-20 4.1613381e-11        1e-09 
   81000    260.68157 3.2934513e-21 3.5685361e-20 5.3119203e-11        1e-09 
   82000    220.55224 8.1195678e-21 3.5525066e-20 7.6915018e-11        1e-09 
   83000    258.19227 3.3904234e-21 3.5473017e-20 5.6013991e-11        1e-09 
   84000    222.98065 7.854382e-21 3.5561631e-20 7.5083695e-11        1e-09 
   85000    252.86539 4.2186689e-21 3.5639352e-20 6.0939556e-11        1e-09 
   86000    257.60316 3.4659959e-21 3.5475388e-20 5.8165464e-11        1e-09 
   87000    245.14593 5.0085678e-21 3.5470043e-20 5.9697576e-11        1e-09 
   88000    237.53806 5.8760202e-21 3.5392152e-20 6.808837e-11        1e-09 
   89000    250.24297 4.1881347e-21 3.528296e-20 5.684043e-11        1e-09 
   90000    228.79645 6.7413143e-21 3.5171227e-20 7.3227929e-11        1e-09 
   91000     240.2999 5.2473944e-21 3.5106708e-20 5.989376e-11        1e-09 
   92000    241.75062 5.1244002e-21 3.5163979e-20 6.5958222e-11        1e-09 
   93000    204.66007 9.7528158e-21 3.5183576e-20 8.4808331e-11        1e-09 
   94000    282.86039 8.4110682e-23 3.5231929e-20 3.907385e-11        1e-09 
   95000    265.68801 2.3045294e-21 3.5318533e-20 4.9744392e-11        1e-09 
   96000    245.02657 4.9616573e-21 3.5408301e-20 6.3603641e-11        1e-09 
   97000    215.73177 8.509535e-21 3.5316049e-20 8.2949045e-11        1e-09 
   98000    245.27782 5.4743706e-21 3.5952233e-20 6.1818051e-11        1e-09 
   99000    223.70596 8.3162852e-21 3.611366e-20 9.5434735e-11        1e-09 
  100000    204.90513 1.0753339e-20 3.621455e-20 1.4407591e-10        1e-09 
  101000    254.90005 4.6102684e-21 3.6283775e-20 6.1186225e-11        1e-09 
  102000    240.05782 6.4932233e-21 3.6322457e-20 6.9013904e-11        1e-09 
  103000    271.38083 2.6128965e-21 3.6334282e-20 4.8964578e-11        1e-09 
  104000    275.28947 2.075016e-21 3.6282082e-20 4.849049e-11        1e-09 
  105000    260.68814 3.7655291e-21 3.6158256e-20 5.4355857e-11        1e-09 
  106000    217.80112 9.0312914e-21 3.6094939e-20 9.5254956e-11        1e-09 
  107000    268.10962 2.7607245e-21 3.6075634e-20 5.4824651e-11        1e-09 
  108000    228.13754 7.940522e-21 3.6288559e-20 8.5827604e-11        1e-09 
  109000    251.62643 4.9604455e-21 3.6227178e-20 6.9683407e-11        1e-09 
  110000    269.17211 2.700386e-21 3.6147318e-20 4.9403525e-11        1e-09 
  111000    231.60141 7.3935717e-21 3.6172024e-20 7.1574659e-11        1e-09 
  112000    263.62642 3.3844541e-21 3.6142287e-20 5.6648608e-11        1e-09 
  113000    268.54599 2.7970348e-21 3.6166167e-20 5.1438596e-11        1e-09 
  114000    225.06147 8.3349355e-21 3.6300745e-20 7.710089e-11        1e-09 
  115000    266.77483 2.9900142e-21 3.6139064e-20 5.3956418e-11        1e-09 
  116000    287.67926 3.6145555e-22 3.6108059e-20 4.2315105e-11        1e-09 
  117000    246.13654 5.4631764e-21 3.6047742e-20 7.314717e-11        1e-09 
  118000    280.39233 1.3193992e-21 3.6160539e-20 4.6216746e-11        1e-09 
  119000    263.01978 3.5650362e-21 3.6247489e-20 5.8046358e-11        1e-09 
  120000    287.50733 6.2841609e-22 3.6353656e-20 4.1293443e-11        1e-09 
  121000    260.00084 3.877809e-21 3.6185133e-20 5.7208232e-11        1e-09 
  122000    226.64374 7.9855225e-21 3.6147942e-20 8.010848e-11        1e-09 
  123000    251.79914 4.7318653e-21 3.6020058e-20 6.5482886e-11        1e-09 
  124000    251.04183 4.810013e-21 3.6004104e-20 5.8883203e-11        1e-09 
  125000    202.26621 1.0901048e-20 3.6034351e-20 1.1639518e-10        1e-09 
  126000    259.17818 3.703444e-21 3.5908546e-20 5.7474849e-11        1e-09 
  127000    272.29318 2.0687368e-21 3.5903489e-20  4.84898e-11        1e-09 
  128000    272.88542 2.0980577e-21  3.60064e-20 4.8212541e-11        1e-09 
  129000    251.53523 4.4638842e-21 3.5719284e-20 6.045057e-11        1e-09 
  130000    247.03187 5.049248e-21 3.5745066e-20 6.6924752e-11        1e-09 
  131000    220.66869 8.3221724e-21 3.574214e-20 7.6296773e-11        1e-09 
  132000    242.60198 5.7853723e-21 3.5930739e-20 6.2899452e-11        1e-09 
  133000    257.48375 3.9317302e-21 3.5926284e-20 5.6513463e-11        1e-09 
  134000     241.5707 5.7443046e-21 3.5761526e-20 6.1758157e-11        1e-09 
  135000     230.9998 7.5382322e-21 3.6241929e-20 8.2746879e-11        1e-09 
  136000    233.97634 7.2470443e-21 3.6320602e-20 7.3641034e-11        1e-09 
  137000    242.46304 6.2457275e-21 3.637383e-20  6.86368e-11        1e-09 
  138000    248.71318 5.4225485e-21 3.6327284e-20 6.0349145e-11        1e-09 
  139000    204.10301 1.066598e-20 3.6027522e-20 1.3370268e-10        1e-09 
  140000    254.72982 4.3252388e-21 3.5977593e-20 5.5621402e-11        1e-09 
  141000    251.48779 4.7116782e-21 3.5961183e-20 6.4247029e-11        1e-09 
  142000    269.15279 2.3722587e-21 3.5816791e-20 5.1385244e-11        1e-09 
  143000    188.69649 1.2486206e-20 3.5933355e-20 1.3754716e-10        1e-09 
  144000    257.77849 3.8335711e-21 3.5864749e-20 5.8366093e-11        1e-09 
  145000    192.11462 1.1756258e-20 3.562814e-20 1.2475107e-10        1e-09 
  146000    266.24342 2.5486379e-21 3.5631655e-20 4.8957078e-11        1e-09 
  147000    209.63955 9.6940111e-21 3.5743514e-20 8.925573e-11        1e-09 
  148000    197.30334 1.1371028e-20 3.5887653e-20 9.8251616e-11        1e-09 
  149000    241.89851 6.6778007e-21 3.6735756e-20 6.7211936e-11        1e-09 
  150000    247.50393 5.9538484e-21 3.6708324e-20 6.5403714e-11        1e-09 
  151000     256.4977 4.7945995e-21 3.6666629e-20 6.343495e-11        1e-09 
  152000    257.87568 4.8483678e-21 3.6891622e-20 6.1028929e-11        1e-09 
  153000    246.14451 6.3241087e-21 3.6909666e-20 6.7151857e-11        1e-09 
  154000    259.09403 5.0445291e-21 3.7239174e-20 6.022824e-11        1e-09 
  155000     291.0566 1.6770153e-21 3.7843282e-20 4.8968535e-11        1e-09 
  156000    261.74561 5.4277154e-21 3.7951841e-20 6.5253339e-11        1e-09 
  157000      249.788 6.8041903e-21 3.7842482e-20 7.4927851e-11        1e-09 
  158000    254.93363 6.242376e-21 3.7920055e-20 7.383065e-11        1e-09 
  159000    271.77384 4.078318e-21 3.7848538e-20 5.9495968e-11        1e-09 
  160000    282.69573 2.6083759e-21 3.7735733e-20 5.0375568e-11        1e-09 
  161000    246.77883 7.0408582e-21 3.7705235e-20 7.7291931e-11        1e-09 
  162000    249.81717 6.5662167e-21 3.7608132e-20 7.3856318e-11        1e-09 
  163000    268.58013 4.2753754e-21 3.7648749e-20 5.8570079e-11        1e-09 
  164000    288.83074 1.897669e-21 3.7787354e-20 4.756498e-11        1e-09 
  165000    275.53467 3.6938844e-21 3.793142e-20 5.9217257e-11        1e-09 
  166000      290.374 1.8129032e-21 3.7894351e-20 4.9294107e-11        1e-09 
  167000    292.50799 1.6246507e-21 3.7971265e-20 4.7412309e-11        1e-09 
  168000    243.81535 7.6406407e-21 3.7936779e-20 7.8087745e-11        1e-09 
  169000    288.30599 2.1153717e-21 3.7939852e-20 4.728516e-11        1e-09 
  170000     302.0195 9.3691924e-22 3.846542e-20 4.417394e-11        1e-09 
  171000    235.86706 9.1803736e-21 3.8488869e-20 1.1282745e-10        1e-09 
  172000    284.80195 3.0658696e-21 3.8454943e-20 5.4217597e-11        1e-09 
  173000    290.18299 2.4002826e-21 3.8457996e-20 5.5286614e-11        1e-09 
  174000    265.42491 5.5700577e-21 3.8551369e-20 6.4970435e-11        1e-09 
  175000    273.69983 4.5804333e-21 3.8589974e-20 6.1977605e-11        1e-09 
  176000    293.58973 2.1542473e-21 3.8635278e-20 5.2782754e-11        1e-09 
  177000    265.53523 5.5648933e-21 3.8559912e-20 6.9436772e-11        1e-09 
  178000    300.67024 1.1666797e-21 3.8527524e-20 4.7013988e-11        1e-09 
  179000    208.43749 1.2533526e-20 3.8433664e-20 1.1802772e-10        1e-09 
  180000    276.34672 4.0564226e-21 3.8394861e-20 5.9542205e-11        1e-09 
  181000    286.41314 2.7427983e-21 3.8332075e-20 5.285804e-11        1e-09 
  182000    274.65533 4.3821163e-21 3.8510385e-20 6.4475939e-11        1e-09 
  183000    256.60551 6.591498e-21 3.8476923e-20 7.4558077e-11        1e-09 
  184000    297.09223 1.6038522e-21 3.8520098e-20 5.1089222e-11        1e-09 
  185000    288.46273 2.6232424e-21 3.8467199e-20 5.6414493e-11        1e-09 
  186000     237.9199 9.1842073e-21 3.8747786e-20 1.0890265e-10        1e-09 
  187000    295.40195 1.7896169e-21 3.8495831e-20 4.6676014e-11        1e-09 
  188000    272.74188 4.5050219e-21 3.8395528e-20 6.4003635e-11        1e-09 
  189000    265.33893 5.4235516e-21 3.8394179e-20 6.5362365e-11        1e-09 
  190000    257.95708 6.3867735e-21 3.8440143e-20 8.0690634e-11        1e-09 
  191000    270.59358 4.8194344e-21 3.8442997e-20 6.9489996e-11        1e-09 
  192000    257.50414 6.5014471e-21 3.8498535e-20 7.1347422e-11        1e-09 
  193000    267.48834 5.1018369e-21 3.8339547e-20 6.9107254e-11        1e-09 
  194000    255.83157 6.6513386e-21 3.8440595e-20 8.3004012e-11        1e-09 
  195000    198.42622 1.3610211e-20 3.8266362e-20 1.2183481e-10        1e-09 
  196000     293.3567 1.8703729e-21 3.8322447e-20 4.6761374e-11        1e-09 
  197000    244.12298 7.7627728e-21 3.8097137e-20 7.689148e-11        1e-09 
  198000    238.40377 9.391847e-21 3.901555e-20 8.9928327e-11        1e-09 
  199000    306.04621 9.6208768e-22 3.8990942e-20 4.507706e-11        1e-09 
  200000     284.0582 3.741646e-21 3.9038302e-20 5.9064381e-11        1e-09 
  201000     293.1557 2.4595314e-21 3.888663e-20 5.6270038e-11        1e-09 
  202000    257.07777 6.915485e-21 3.8859593e-20 7.8866173e-11        1e-09 
  203000    308.46989 5.8601557e-22 3.8916032e-20 4.7387669e-11        1e-09 
  204000    240.91769 9.0555666e-21 3.8991646e-20 8.6179954e-11        1e-09 
  205000    286.55071 3.3351049e-21 3.8941476e-20 5.496628e-11        1e-09 
  206000     292.6213 2.5247285e-21 3.8885422e-20 5.2991916e-11        1e-09 
  207000    270.17216 5.1300419e-21 3.8701239e-20 6.9531502e-11        1e-09 
  208000    206.79319 1.3127996e-20 3.8823815e-20 1.211479e-10        1e-09 
  209000    254.09282 7.2543871e-21 3.8827589e-20 7.6744106e-11        1e-09 
  210000    300.13717 1.5694635e-21 3.8864068e-20 5.4996984e-11        1e-09 
  211000     304.2343 1.2080773e-21 3.9011787e-20 5.2458858e-11        1e-09 
  212000    259.18972 6.8815087e-21 3.9088043e-20 7.4161163e-11        1e-09 
  213000    238.54998 9.3253223e-21 3.8967194e-20 8.9872334e-11        1e-09 
  214000    286.76894 3.4576437e-21 3.9091133e-20 5.559882e-11        1e-09 
  215000     240.8462 9.3500768e-21 3.9277273e-20 8.7782912e-11        1e-09 
  216000    261.75193 6.8154855e-21 3.9340397e-20 7.2539591e-11        1e-09 
  217000    297.03545 2.2336312e-21 3.9142821e-20 4.9022307e-11        1e-09 
  218000    265.21811 6.3202149e-21 3.9275829e-20 7.3348695e-11        1e-09 
  219000    238.14175 9.6628136e-21 3.9253958e-20 1.4333049e-10        1e-09 
  220000    284.53702 3.7127614e-21 3.9068915e-20 5.8016166e-11        1e-09 
  221000    307.43634 9.9727799e-22 3.9198867e-20 4.8598697e-11        1e-09 
  222000    272.38842 5.4548885e-21 3.9301474e-20 6.9555644e-11        1e-09 
  223000     272.3811 5.643657e-21 3.9489334e-20 6.547269e-11        1e-09 
  224000    236.98025 1.0009867e-20 3.9456686e-20 1.2584437e-10        1e-09 
  225000    215.46616 1.2721114e-20 3.9494623e-20 1.1789268e-10        1e-09 
  226000    296.62153 2.6423179e-21 3.9500076e-20 5.7084377e-11        1e-09 
  227000    280.42963 4.646791e-21 3.9492567e-20 6.6516367e-11        1e-09 
  228000    237.94282 1.0020369e-20 3.9586795e-20 1.3663476e-10        1e-09 
  229000    292.98264 3.1128349e-21 3.9518429e-20 5.7678865e-11        1e-09 
  230000    289.78062 3.6548022e-21 3.9662518e-20 5.7939145e-11        1e-09 
  231000    297.11839 2.816441e-21 3.9735937e-20 5.4007436e-11        1e-09 
  232000     261.3997 7.2502429e-21 3.9731387e-20 8.0549245e-11        1e-09 
  233000    253.42775 8.177079e-21 3.9667641e-20 8.6953077e-11        1e-09 
  234000    307.34135 1.4088615e-21 3.9598648e-20 4.9926338e-11        1e-09 
  235000    310.72106 3.1733867e-21 4.1783131e-20 6.021091e-11        1e-09 
  236000    257.07621 9.7250495e-21 4.1668964e-20 9.8214536e-11        1e-09 
  237000    217.02708 1.4832803e-20 4.1800271e-20 1.9650057e-10        1e-09 
  238000    331.73184 6.7333697e-22 4.189385e-20 4.8816222e-11        1e-09 
  239000    293.98646 5.4002819e-21 4.1930609e-20 6.8936195e-11        1e-09 
  240000    301.31622 3.5197466e-21 4.0960858e-20 6.1335815e-11        1e-09 
  241000    311.89438 2.2203643e-21 4.0975903e-20 5.3555595e-11        1e-09 
  242000    309.18029 2.731103e-21 4.1149394e-20 5.3364724e-11        1e-09 
  243000    290.67783 4.9010275e-21 4.1020228e-20 6.9146615e-11        1e-09 
  244000    231.45393 1.218196e-20 4.0942086e-20 1.1970784e-10        1e-09 
  245000    315.27841 1.6697264e-21 4.084576e-20 5.1203621e-11        1e-09 
  246000    408.88716 1.3121547e-21 5.2119875e-20 5.773596e-11        1e-09 
  247000    368.30259 6.251325e-21 5.2016065e-20 8.4335929e-11        1e-09 
  248000    323.60957 7.2603691e-21 4.747162e-20 8.2636726e-11        1e-09 
  249000    368.47678 2.0145472e-21 4.7800932e-20 6.172709e-11        1e-09 
  250000    336.88696 5.9284029e-21 4.7789483e-20 8.3535993e-11        1e-09 
  251000    368.65851 2.0886367e-21 4.7897604e-20 6.3189966e-11        1e-09 
  252000    368.77888 2.1604434e-21 4.7984367e-20 6.1784538e-11        1e-09 
  253000    312.74907 9.6065882e-21 4.846833e-20 9.7176652e-11        1e-09 
  254000    312.77572 8.0909178e-21 4.6955971e-20 8.7772723e-11        1e-09 
  255000    320.52231 7.4990041e-21 4.7326637e-20 9.6551117e-11        1e-09 
  256000    352.61961 3.4654664e-21 4.7281463e-20 6.3708567e-11        1e-09 
  257000    328.22958 6.5296199e-21 4.7314947e-20 8.5887195e-11        1e-09 
  258000    346.21741 4.3751812e-21 4.7395649e-20 7.3056793e-11        1e-09 
  259000    362.73361 2.8943022e-21 4.7967049e-20 6.9010925e-11        1e-09 
  260000    292.11193 1.2640584e-20 4.8937984e-20 1.1173351e-10        1e-09 
  261000    320.34894 9.1992065e-21 4.9005296e-20 1.1791697e-10        1e-09 
  262000     372.0114 2.6373832e-21 4.8862975e-20 6.3810997e-11        1e-09 
  263000    382.65198 2.1599636e-21 4.9707738e-20 6.2846158e-11        1e-09 
  264000    375.13518 3.0641883e-21 4.9677937e-20 6.7759596e-11        1e-09 
  265000    305.22212 1.1684851e-20 4.9611304e-20 1.0561927e-10        1e-09 
  266000    337.22233 7.5413389e-21 4.9444092e-20 8.6332149e-11        1e-09 
  267000    362.97348 8.0183269e-21 5.3120881e-20 9.5536922e-11        1e-09 
  268000    410.86993 1.010314e-20 6.1157236e-20 1.1108324e-10        1e-09 
  269000    455.25616 5.562433e-21 6.2131897e-20  8.91291e-11        1e-09 
  270000    484.10652 2.8686099e-21 6.3022977e-20 7.8813138e-11        1e-09 
ERROR: Lost atoms: original 10 current 4 (../thermo.cpp:398)
