LAMMPS (16 Feb 2016)
# Big colloid particles and small LJ particles

units		si
atom_style	atomic
dimension	2

lattice		sq 10e-6 # lattice & latice constant
Lattice spacing in x,y,z = 1e-05 1e-05 1e-05
region		box block 0 5 0 2 -0.5 0.5
create_box	1 box
Created orthogonal box = (0 0 -5e-06) to (5e-05 2e-05 5e-06)
  1 by 1 by 1 MPI processor grid
create_atoms	1 box
Created 10 atoms

#set		group all type/fraction 2 0.96 23984

#set		type 1 mass 1e-9
#set		type 2 mass 1
mass 1 1e-9

velocity	all create 300 87287 loop geom

# multi neighbor and comm for efficiency

neighbor	5e-6 bin
#neigh_modify	delay 0
#comm_modify     mode multi

# colloid potential

pair_style	dlvo 2.5e-6# cutoff
pair_coeff	1 1  1.3e-20 2.7e-6 8.15e-12 104022291 0.0828
# hamaker radius psi debyeinv springk
dielectric 	80
pair_modify	shift yes

#fix		1 all npt temp 300 300 1 iso 0.002 0.002 10 #mtk no pchain 0 tchain 1
fix		1 all nve
fix		2 all enforce2d

dump		1 all custom 10000 dump.dlvo.lammpstrj id x y z vx vy vz fx fy fz
#dump_modify 	1 scale no

#dump		2 all image 1000 image.*.jpg type type #		zoom 1.5 center d 0.5 0.5 0.5
#dump_modify	2 pad 5 adiam 1 5.0 adiam 2 1.5

#dump		3 all movie 1000 movie.mpg type type #		zoom 1.5 center d 0.5 0.5 0.5
#dump_modify	3 pad 5 adiam 1 5.0 adiam 2 1.5

thermo_style	custom step temp epair etotal press vol
thermo		1000

timestep	1e-3

run		10000000
Neighbor list info ...
  1 neighbor list requests
  update every 1 steps, delay 10 steps, check yes
  max neighbors/atom: 2000, page size: 100000
  master list distance cutoff = 1.29e-05
  ghost atom cutoff = 1.29e-05
  binsize = 6.45e-06 -> bins = 8 4 2
Memory usage per processor = 3.47686 Mbytes
Step Temp E_pair TotEng Press Volume 
       0          300            0 3.7277561e-20 3.7277561e-11        1e-09 
    1000    261.56836 4.7763054e-21 3.7278407e-20 6.7746766e-11        1e-09 
    2000    243.59504 7.0131107e-21 3.7281873e-20 7.2577223e-11        1e-09 
    3000    220.30806 9.9054673e-21 3.7280624e-20 9.591817e-11        1e-09 
    4000    263.35586 4.5546594e-21 3.7278874e-20 5.9419952e-11        1e-09 
    5000    231.60299 8.4988065e-21 3.7277455e-20 8.2085774e-11        1e-09 
    6000    228.23615 8.9189142e-21 3.7279204e-20 1.0228163e-10        1e-09 
    7000    275.65623 3.0256682e-21 3.7278308e-20 5.4757153e-11        1e-09 
    8000    246.22422 6.6830275e-21 3.7278488e-20 7.699603e-11        1e-09 
    9000     242.7994 7.1079798e-21 3.7277877e-20 8.3781056e-11        1e-09 
   10000      254.562 5.6467041e-21 3.7278206e-20 7.1350744e-11        1e-09 
   11000    279.50301 2.5470545e-21 3.727769e-20 5.3137785e-11        1e-09 
   12000    216.15397 1.0419061e-20 3.7278038e-20 9.4938482e-11        1e-09 
   13000    237.57462 7.7577295e-21 3.7278404e-20 8.1789963e-11        1e-09 
   14000    198.78387 1.2576665e-20 3.7277257e-20 1.0504119e-10        1e-09 
   15000    237.10981 7.8160716e-21 3.727899e-20 7.9710142e-11        1e-09 
   16000    211.76991 1.0963983e-20 3.7278202e-20 1.051472e-10        1e-09 
   17000    230.55752 8.6297264e-21 3.7278467e-20 9.097388e-11        1e-09 
   18000    279.13829 2.594033e-21 3.7279348e-20 5.3852854e-11        1e-09 
   19000    256.63509 5.3902146e-21 3.7279315e-20 6.247359e-11        1e-09 
   20000    258.21823 5.1947948e-21 3.7280615e-20 6.2907245e-11        1e-09 
   21000    224.29883 9.4092906e-21 3.7280335e-20 9.0028246e-11        1e-09 
   22000    249.71133 6.2515915e-21 3.7280356e-20 6.6806817e-11        1e-09 
   23000    287.04632 1.6114226e-21 3.7279379e-20 4.9967531e-11        1e-09 
   24000     217.4132 1.0263476e-20 3.7278922e-20 1.0171663e-10        1e-09 
   25000    217.76758 1.0219281e-20 3.7278762e-20 8.4336601e-11        1e-09 
   26000    276.60339 2.9122741e-21 3.7282607e-20 5.5208153e-11        1e-09 
   27000    274.42676 3.1826814e-21 3.7282549e-20 5.4066538e-11        1e-09 
   28000    237.07452 7.8264254e-21 3.7284958e-20 8.7375172e-11        1e-09 
   29000    257.05194 5.3460206e-21 3.7286918e-20 6.163071e-11        1e-09 
   30000    282.63376 2.1682716e-21 3.7287929e-20 5.1701102e-11        1e-09 
   31000     288.0241 1.4972502e-21 3.7286703e-20 4.8262458e-11        1e-09 
   32000     186.8782 1.4068203e-20 3.7289414e-20 1.2809186e-10        1e-09 
   33000    253.07533 5.8427821e-21 3.7289553e-20 6.842785e-11        1e-09 
   34000    250.08186 6.2146665e-21 3.7289472e-20 7.0980263e-11        1e-09 
   35000    259.72263 5.016394e-21 3.7289148e-20 6.3654532e-11        1e-09 
   36000    269.99171 3.7388399e-21 3.7287615e-20 5.7135403e-11        1e-09 
   37000    181.76153 1.4701916e-20 3.7287338e-20 1.1856553e-10        1e-09 
   38000    278.17194 2.7203432e-21 3.7285581e-20 5.3325215e-11        1e-09 
   39000    186.58776 1.4100641e-20 3.7285763e-20 1.2413136e-10        1e-09 
   40000    286.68019 1.6630426e-21 3.7285504e-20 4.8340518e-11        1e-09 
   41000     243.2897 7.0566201e-21 3.7287442e-20 7.3983233e-11        1e-09 
   42000    261.51761 4.7918276e-21 3.7287623e-20 6.5182619e-11        1e-09 
   43000      220.753 9.8550235e-21 3.7285468e-20 1.0733595e-10        1e-09 
   44000    206.79104 1.1586845e-20 3.7282397e-20 1.3035064e-10        1e-09 
   45000    278.52007 2.6745558e-21 3.7283052e-20 5.1824313e-11        1e-09 
   46000    236.72345 7.870029e-21 3.7284938e-20 8.3387063e-11        1e-09 
   47000    188.92771 1.3809168e-20 3.7285049e-20 1.4752797e-10        1e-09 
   48000    243.86483 6.9826157e-21 3.7284902e-20 7.0699464e-11        1e-09 
   49000    292.66816 9.1832713e-22 3.7284844e-20 4.6457873e-11        1e-09 
   50000    236.12547 7.9451412e-21 3.7285747e-20 8.3364111e-11        1e-09 
   51000    255.12738 5.5853164e-21 3.7287071e-20 6.8067563e-11        1e-09 
   52000    263.36647 4.5602043e-21 3.7285736e-20 6.563563e-11        1e-09 
   53000    279.53536 2.5522734e-21 3.7286929e-20 5.2189481e-11        1e-09 
   54000    258.36582 5.1824683e-21 3.7286626e-20 6.7808985e-11        1e-09 
   55000    230.31127 8.6687452e-21 3.7286887e-20 1.0226219e-10        1e-09 
   56000    276.82078 2.8875444e-21 3.7284889e-20 4.9641129e-11        1e-09 
   57000    293.09681 8.6411139e-22 3.7283892e-20 4.4664961e-11        1e-09 
   58000    243.93629 6.9736003e-21 3.7284767e-20 7.3194643e-11        1e-09 
   59000    274.34277 3.1932396e-21 3.7282671e-20 5.5112331e-11        1e-09 
   60000    162.34256 1.7110578e-20 3.7283027e-20 1.803851e-10        1e-09 
   61000    289.46297 1.3138431e-21 3.7282088e-20 4.7412793e-11        1e-09 
   62000    220.44007 9.8902393e-21  3.72818e-20 8.4461954e-11        1e-09 
   63000    248.17582 6.4429198e-21 3.7280883e-20 6.9836326e-11        1e-09 
   64000    249.24247 6.3116389e-21 3.7282144e-20 7.0357409e-11        1e-09 
   65000    222.75182 9.6030556e-21 3.7281871e-20 1.0121188e-10        1e-09 
   66000    211.90836 1.095029e-20 3.7281713e-20 1.1442239e-10        1e-09 
   67000    290.76295 1.1545254e-21 3.7284304e-20 4.3889343e-11        1e-09 
   68000    269.41551 3.8084817e-21 3.7285659e-20 5.7897231e-11        1e-09 
   69000    292.39219 9.5277176e-22 3.7284997e-20 4.8381653e-11        1e-09 
   70000    244.29842 6.9281926e-21 3.7284356e-20 8.1857378e-11        1e-09 
   71000    259.85521 4.9947835e-21 3.7284012e-20 6.4068571e-11        1e-09 
   72000    259.55763 5.0304346e-21 3.7282685e-20 6.5307496e-11        1e-09 
   73000    259.92363 4.9846045e-21 3.7282334e-20 6.5458343e-11        1e-09 
   74000    253.13928 5.8304273e-21 3.7285144e-20 6.5009318e-11        1e-09 
   75000    270.86496 3.6303819e-21 3.7287665e-20 5.5531772e-11        1e-09 
   76000    282.41125 2.1950462e-21 3.7287055e-20 5.1671512e-11        1e-09 
   77000    296.48285 4.4829236e-22 3.7288818e-20 4.3658554e-11        1e-09 
   78000     209.9084 1.1205115e-20 3.7288026e-20  1.11409e-10        1e-09 
   79000    263.96254 4.4880549e-21 3.7287654e-20 6.6418619e-11        1e-09 
   80000    265.96793 4.2372014e-21 3.7285987e-20 5.7895073e-11        1e-09 
   81000    291.83131 1.0210497e-21 3.7283582e-20 4.3618507e-11        1e-09 
   82000    234.21606 8.1811356e-21 3.728448e-20 7.4289907e-11        1e-09 
   83000    250.47509 6.1614207e-21 3.7285089e-20 7.1189569e-11        1e-09 
   84000    230.35775 8.6612846e-21 3.7285201e-20 7.9900092e-11        1e-09 
   85000    274.32555 3.1992541e-21 3.7286546e-20 5.6110017e-11        1e-09 
   86000    266.42921 4.1826993e-21 3.7288803e-20 5.9930402e-11        1e-09 
   87000    287.92131 1.5119675e-21 3.7288648e-20 4.7808652e-11        1e-09 
   88000    267.20572 4.0867358e-21 3.7289327e-20 5.6120548e-11        1e-09 
   89000    261.01988 4.8543582e-21 3.7288306e-20 6.1735147e-11        1e-09 
   90000    271.16001 3.5944772e-21 3.7288424e-20 5.9677136e-11        1e-09 
   91000    236.81336 7.862519e-21  3.72886e-20 7.8845753e-11        1e-09 
   92000    261.67239 4.7735786e-21 3.7288607e-20 5.9859253e-11        1e-09 
   93000     276.0531 2.9881137e-21 3.7290068e-20 5.5371331e-11        1e-09 
   94000    247.44384 6.5448297e-21 3.7291839e-20 6.9254151e-11        1e-09 
   95000    258.34773 5.1919985e-21 3.7293909e-20 6.6415247e-11        1e-09 
   96000    245.45515 6.7933913e-21 3.7293288e-20 7.1079623e-11        1e-09 
   97000    262.34687 4.6942933e-21 3.7293132e-20 6.4225958e-11        1e-09 
   98000     250.1266 6.2138647e-21 3.729423e-20 6.9112701e-11        1e-09 
   99000    296.04828 5.0774375e-22 3.729427e-20 4.0223697e-11        1e-09 
  100000    251.78491 6.0083734e-21 3.7294798e-20 6.7119782e-11        1e-09 
  101000    251.28623 6.0730486e-21 3.7297507e-20 6.9663544e-11        1e-09 
  102000    256.94539 5.3682569e-21 3.7295915e-20 6.5699761e-11        1e-09 
  103000    292.99251 8.8940661e-22 3.7296227e-20 4.4655392e-11        1e-09 
  104000    256.32482 5.4465766e-21 3.7297124e-20 6.4065515e-11        1e-09 
  105000    247.61259 6.5279718e-21 3.729595e-20 7.4592715e-11        1e-09 
  106000    279.07298 2.6190212e-21 3.7296222e-20 5.1306789e-11        1e-09 
  107000    273.52709 3.3078779e-21 3.7295953e-20 5.3806383e-11        1e-09 
  108000      273.714 3.2813206e-21 3.7292621e-20 5.4431254e-11        1e-09 
  109000    278.91247 2.6360706e-21 3.7293326e-20 5.2623733e-11        1e-09 
  110000    220.38423 9.9081463e-21 3.7292768e-20 9.2656729e-11        1e-09 
  111000    212.32051 1.0909038e-20 3.7291674e-20 1.0283867e-10        1e-09 
  112000    276.30948 2.9582458e-21 3.7292058e-20 5.5037739e-11        1e-09 
  113000    239.49272 7.5314795e-21 3.7290494e-20 7.2667235e-11        1e-09 
  114000    276.56251 2.9286658e-21 3.7293919e-20 5.5048874e-11        1e-09 
  115000    251.41919 6.0519657e-21 3.7292946e-20 6.6498389e-11        1e-09 
  116000     258.2746 5.1970946e-21 3.7289919e-20 6.3295331e-11        1e-09 
  117000    250.28025 6.1878092e-21 3.7287267e-20 7.0882046e-11        1e-09 
  118000    252.41302 5.9220002e-21 3.7286472e-20 6.5133608e-11        1e-09 
  119000    264.85432 4.375447e-21 3.7285857e-20 5.8975908e-11        1e-09 
  120000    293.32436 8.3895656e-22 3.7287012e-20 4.446761e-11        1e-09 
  121000    245.89134 6.7334064e-21 3.7287505e-20 7.1295164e-11        1e-09 
  122000     256.1748 5.4543447e-21 3.7286251e-20 6.5910243e-11        1e-09 
  123000    262.69857 4.6439513e-21 3.7286492e-20 6.0669931e-11        1e-09 
  124000    278.62857 2.664695e-21 3.7286673e-20 5.0081416e-11        1e-09 
  125000    253.95801 5.7312436e-21 3.7287694e-20 6.643872e-11        1e-09 
  126000    282.88318 2.136202e-21 3.7286852e-20 5.1183453e-11        1e-09 
  127000    281.64048 2.2886217e-21 3.7284855e-20 4.9811555e-11        1e-09 
  128000    224.03823 9.4471841e-21 3.7285846e-20 9.8956829e-11        1e-09 
  129000    253.99767 5.7239264e-21 3.7285305e-20 6.6377865e-11        1e-09 
  130000    238.60897 7.6370559e-21 3.7286258e-20 8.2333164e-11        1e-09 
  131000    278.39084 2.6940509e-21 3.7286489e-20 5.1216306e-11        1e-09 
  132000    265.56672 4.2872286e-21 3.728616e-20 6.1645535e-11        1e-09 
  133000    290.48426 1.1929758e-21 3.7288124e-20 4.7096525e-11        1e-09 
  134000     275.9103 3.0029208e-21 3.7287131e-20 5.3720286e-11        1e-09 
  135000    283.16593 2.1014952e-21 3.728728e-20 4.9990004e-11        1e-09 
  136000    269.82812 3.7582056e-21 3.7286653e-20 6.0844726e-11        1e-09 
  137000    278.94845 2.6242819e-21 3.7286008e-20 5.1736447e-11        1e-09 
  138000    262.67344 4.6483677e-21 3.7287785e-20 6.0248628e-11        1e-09 
  139000    255.93618 5.4843381e-21 3.7286593e-20 7.1449329e-11        1e-09 
  140000    245.74032 6.7526715e-21 3.7288004e-20 6.7799895e-11        1e-09 
  141000    268.68183 3.9043275e-21 3.7290339e-20 5.7129074e-11        1e-09 
  142000     267.1717 4.0910329e-21 3.7289398e-20 5.8640445e-11        1e-09 
  143000    282.44923 2.1940183e-21 3.7290747e-20 4.7769239e-11        1e-09 
  144000    267.87777 4.0054212e-21 3.729152e-20 5.6984264e-11        1e-09 
  145000    262.69863 4.6498755e-21 3.7292423e-20 6.1211812e-11        1e-09 
  146000    255.66274 5.5251546e-21 3.7293432e-20 6.429319e-11        1e-09 
  147000    275.98841 2.9992929e-21 3.7293209e-20 5.4467109e-11        1e-09 
  148000    249.78818 6.2546773e-21 3.7292991e-20 7.3229885e-11        1e-09 
  149000    250.16832 6.2076302e-21 3.729318e-20 7.0104021e-11        1e-09 
  150000     271.5857 3.5474586e-21  3.72943e-20 5.7108622e-11        1e-09 
  151000     192.1378 1.3418216e-20 3.7292978e-20 1.8277798e-10        1e-09 
  152000    294.22298 7.3374028e-22 3.7293456e-20 4.4288583e-11        1e-09 
  153000    202.31174 1.215424e-20 3.7293201e-20 1.1774397e-10        1e-09 
  154000    277.16538 2.8526681e-21 3.7292833e-20 5.4853746e-11        1e-09 
  155000    243.11149 7.084069e-21 3.7292747e-20 7.1708202e-11        1e-09 
  156000    261.51626 4.7944164e-21 3.7290044e-20 6.6496723e-11        1e-09 
  157000    275.98519 2.9961052e-21 3.7289621e-20 5.3373418e-11        1e-09 
  158000    281.63227 2.2957149e-21 3.7290929e-20 4.8333016e-11        1e-09 
  159000    259.02503 5.1082247e-21 3.7294296e-20 6.3412734e-11        1e-09 
  160000    273.94539 3.2519849e-21 3.7292038e-20 5.2549404e-11        1e-09 
  161000    214.10768 1.0687839e-20 3.7292546e-20 9.7556208e-11        1e-09 
  162000    262.01957 4.7343816e-21 3.729255e-20 6.2444839e-11        1e-09 
  163000    204.20863 1.1916419e-20 3.7291085e-20 1.0112914e-10        1e-09 
  164000    287.14631 1.6100383e-21 3.7290419e-20 4.8303541e-11        1e-09 
  165000    287.28734 1.5950351e-21 3.729294e-20 4.6694031e-11        1e-09 
  166000     239.1338 7.5792269e-21 3.7293642e-20 7.335055e-11        1e-09 
  167000    229.99231 8.7186376e-21 3.7297145e-20 9.6824193e-11        1e-09 
  168000    274.03712 3.2466916e-21 3.7298143e-20 5.2713367e-11        1e-09 
  169000    278.81083 2.6519516e-21 3.7296577e-20 5.4617508e-11        1e-09 
  170000    271.71154 3.5347418e-21 3.729722e-20 5.7574487e-11        1e-09 
  171000    295.74166 5.4824957e-22 3.7296676e-20 4.3854684e-11        1e-09 
  172000    249.59259 6.2821073e-21 3.7296117e-20 8.6537505e-11        1e-09 
  173000    287.59795 1.5580589e-21 3.7294559e-20 4.6182866e-11        1e-09 
  174000    271.57672 3.5488317e-21 3.7294558e-20 6.0331341e-11        1e-09 
  175000    225.65314 9.2559837e-21 3.7295313e-20 8.3484417e-11        1e-09 
  176000    257.73512 5.2715622e-21 3.7297351e-20 6.7607619e-11        1e-09 
  177000    276.99218 2.877701e-21 3.7296343e-20 4.9875295e-11        1e-09 
  178000    257.30507 5.324518e-21 3.729687e-20 6.7333341e-11        1e-09 
  179000    147.58114 1.8957017e-20 3.7295234e-20 2.2854692e-10        1e-09 
  180000     239.6268 7.5191423e-21 3.7294817e-20 9.5987108e-11        1e-09 
  181000    235.31845 8.0530716e-21 3.7293398e-20 1.160152e-10        1e-09 
  182000    178.29425 1.5137193e-20 3.7291775e-20 1.3251718e-10        1e-09 
  183000    285.72009 1.7886886e-21 3.7291848e-20 4.931249e-11        1e-09 
  184000    259.23288 5.0800816e-21 3.7291979e-20 6.8621348e-11        1e-09 
  185000    285.22626 1.8510907e-21 3.7292888e-20 4.8915941e-11        1e-09 
  186000    277.88186 2.7634599e-21 3.7292653e-20 5.1689324e-11        1e-09 
  187000    184.55895 1.4358994e-20 3.7292019e-20 1.159759e-10        1e-09 
  188000    217.94538 1.0211105e-20 3.7292679e-20 9.4607985e-11        1e-09 
  189000    291.44238 1.0779553e-21 3.7292158e-20 4.6878972e-11        1e-09 
  190000    286.34007 1.7094054e-21 3.7289603e-20 4.5547816e-11        1e-09 
  191000    248.75982 6.378693e-21 3.7289224e-20 7.8233442e-11        1e-09 
  192000    276.05057 2.9889587e-21 3.7290598e-20 5.3672372e-11        1e-09 
  193000    264.33883 4.4446477e-21 3.7291004e-20 5.8355111e-11        1e-09 
  194000    237.12611 7.8263181e-21 3.7291262e-20 8.3653961e-11        1e-09 
  195000    272.44278 3.4392362e-21 3.7292578e-20 5.5304851e-11        1e-09 
  196000    264.93524 4.3725748e-21 3.729304e-20 5.987038e-11        1e-09 
  197000    272.56187 3.4254275e-21 3.7293567e-20 5.6504784e-11        1e-09 
  198000    265.97593 4.2436207e-21  3.72934e-20 5.7663369e-11        1e-09 
  199000    274.81788 3.1446993e-21 3.7293167e-20 5.2805235e-11        1e-09 
  200000    264.12016 4.4715327e-21 3.7290717e-20 5.9698369e-11        1e-09 
  201000    233.58783 8.264452e-21 3.7289734e-20 7.9949614e-11        1e-09 
  202000    273.07976  3.35631e-21 3.7288801e-20 5.6128371e-11        1e-09 
  203000    236.83426 7.8598456e-21 3.7288525e-20 7.5545108e-11        1e-09 
  204000    232.90592 8.3456025e-21 3.7286152e-20 7.9401486e-11        1e-09 
  205000    260.07489 4.9700609e-21 3.7286586e-20 6.202354e-11        1e-09 
  206000    263.59402 4.5358088e-21 3.7289615e-20 6.0481619e-11        1e-09 
  207000    258.38608 5.1850276e-21 3.7291703e-20 6.3644231e-11        1e-09 
  208000    221.96753 9.7097777e-21 3.7291138e-20 8.8436383e-11        1e-09 
  209000    281.79973 2.2746072e-21 3.7290629e-20 5.1093904e-11        1e-09 
  210000    247.19259 6.5760503e-21 3.7291839e-20 6.5980061e-11        1e-09 
  211000    246.27545 6.6885554e-21 3.7290383e-20 7.1830386e-11        1e-09 
  212000    217.71198 1.0238696e-20 3.7291268e-20 9.9636127e-11        1e-09 
  213000    211.94308 1.0951547e-20 3.7287284e-20 1.1622787e-10        1e-09 
  214000    259.87912 4.9959029e-21 3.7288102e-20 6.7612367e-11        1e-09 
  215000    239.87817 7.4804208e-21 3.7287331e-20 7.3958387e-11        1e-09 
  216000    290.43923 1.1991364e-21 3.728869e-20 4.5480072e-11        1e-09 
  217000    113.08417 2.3239765e-20 3.7291438e-20 4.638112e-10        1e-09 
  218000    280.68094 2.4122173e-21 3.7289219e-20 5.1698662e-11        1e-09 
  219000    283.88273 2.014412e-21 3.7289264e-20 5.1755277e-11        1e-09 
  220000    237.56916 7.7697032e-21 3.7289699e-20 7.612689e-11        1e-09 
  221000      248.057 6.4671588e-21 3.7290359e-20 7.3551113e-11        1e-09 
  222000    220.60403 9.8785829e-21 3.7290516e-20 8.4343109e-11        1e-09 
  223000    267.73505 4.0226463e-21 3.7291012e-20 5.9521761e-11        1e-09 
  224000    270.57664 3.6685763e-21 3.7290033e-20 5.7497348e-11        1e-09 
  225000     279.0415 2.6151394e-21 3.7288428e-20 5.3511935e-11        1e-09 
  226000    235.11977 8.0729051e-21 3.7288543e-20 1.0069574e-10        1e-09 
  227000    261.49327 4.7961648e-21 3.7288935e-20 5.9318409e-11        1e-09 
  228000     245.5938 6.771999e-21 3.7289124e-20 9.0140204e-11        1e-09 
  229000    257.26797 5.3227808e-21 3.7290522e-20 6.6376624e-11        1e-09 
  230000    275.41568 3.0669642e-21 3.7289713e-20 5.4018257e-11        1e-09 
  231000    243.05187 7.0883099e-21 3.7289579e-20 7.1907589e-11        1e-09 
  232000     239.9673 7.4721932e-21 3.7290179e-20 7.7549686e-11        1e-09 
  233000    241.19323 7.3211832e-21 3.7291501e-20 7.916319e-11        1e-09 
  234000    288.15157 1.4862034e-21 3.7291496e-20 4.812002e-11        1e-09 
  235000    234.77673 8.1165787e-21 3.7289592e-20 7.6521177e-11        1e-09 
  236000    233.38219 8.2891349e-21 3.7288864e-20 7.8282601e-11        1e-09 
  237000    266.83797 4.1302773e-21 3.7287173e-20 6.453797e-11        1e-09 
  238000    273.92335 3.2472199e-21 3.7284534e-20 5.2932263e-11        1e-09 
  239000    274.56099 3.1684314e-21 3.7284977e-20 5.5062669e-11        1e-09 
  240000    243.90387 6.9791187e-21 3.7286257e-20 7.3308668e-11        1e-09 
  241000    287.01642 1.6222876e-21 3.7286527e-20 4.857004e-11        1e-09 
  242000    255.88323 5.4913512e-21 3.7287027e-20 6.458403e-11        1e-09 
  243000    216.52694 1.0382617e-20 3.7287938e-20 1.2466277e-10        1e-09 
  244000    232.19013 8.4352884e-21 3.7286895e-20 7.903698e-11        1e-09 
  245000    248.54475 6.4014432e-21 3.728525e-20 7.9390024e-11        1e-09 
  246000    200.46045 1.2376511e-20 3.7285433e-20 1.4699406e-10        1e-09 
  247000    294.94018 6.3444378e-22 3.7283279e-20 4.5848065e-11        1e-09 
  248000    258.64305 5.1449835e-21 3.7283591e-20 6.3350599e-11        1e-09 
  249000    255.98785 5.4750489e-21 3.7283724e-20 6.3185733e-11        1e-09 
  250000    205.83997 1.1706946e-20 3.7284319e-20 1.2104829e-10        1e-09 
  251000    203.52137 1.1994227e-20 3.7283494e-20 1.3190656e-10        1e-09 
  252000    273.83499 3.2590083e-21 3.7285343e-20 5.376141e-11        1e-09 
  253000    248.53023   6.4005e-21 3.7282502e-20 7.5271072e-11        1e-09 
  254000    266.68126 4.1468532e-21 3.7284276e-20 6.0783735e-11        1e-09 
  255000    249.00983 6.3438812e-21 3.7285479e-20 7.4651215e-11        1e-09 
  256000    268.11881 3.9687043e-21 3.7284755e-20 5.4405928e-11        1e-09 
  257000    270.45141 3.6774886e-21 3.7283385e-20 5.6464042e-11        1e-09 
  258000    204.22078 1.1905091e-20 3.7281267e-20 1.0500276e-10        1e-09 
  259000     241.5719 7.2640492e-21 3.7281419e-20 7.8820798e-11        1e-09 
  260000    258.68713 5.1369318e-21 3.7281016e-20 6.6364354e-11        1e-09 
  261000    261.11739 4.835148e-21 3.7281213e-20 6.222877e-11        1e-09 
  262000    272.83413 3.3787366e-21 3.7280706e-20 5.3745571e-11        1e-09 
  263000    214.91235 1.0576174e-20 3.7280868e-20 1.6191078e-10        1e-09 
  264000    275.31559 3.0704598e-21 3.7280771e-20 5.3046145e-11        1e-09 
  265000    292.34852 9.5276645e-22 3.7279566e-20 4.661305e-11        1e-09 
  266000    281.27915 2.3296046e-21 3.728094e-20 5.0182595e-11        1e-09 
  267000    257.20217 5.3220579e-21 3.7281623e-20 6.3681022e-11        1e-09 
  268000    245.23197 6.8120561e-21 3.7284221e-20 7.0212229e-11        1e-09 
  269000    269.01151 3.857824e-21 3.7284801e-20 5.8275478e-11        1e-09 
  270000    254.10449 5.7122836e-21 3.7286935e-20 6.6865728e-11        1e-09 
  271000    237.81053 7.7373905e-21 3.7287378e-20 8.0611209e-11        1e-09 
  272000    267.66463 4.0286453e-21 3.728826e-20 5.8930627e-11        1e-09 
  273000     156.6302 1.7824073e-20 3.7286713e-20 1.8310443e-10        1e-09 
  274000    272.65881 3.4087206e-21 3.7288905e-20 5.7168045e-11        1e-09 
  275000    265.86191 4.2516611e-21 3.7287273e-20 5.9536433e-11        1e-09 
  276000    258.49042 5.1692297e-21 3.7288871e-20 6.4005588e-11        1e-09 
  277000    279.40115 2.5724143e-21 3.7290392e-20 5.422661e-11        1e-09 
  278000    261.85323 4.7515311e-21 3.728903e-20 6.3740505e-11        1e-09 
  279000    233.53154 8.2705577e-21 3.7288845e-20 1.008527e-10        1e-09 
  280000    266.64316 4.156204e-21 3.7288893e-20 5.8713373e-11        1e-09 
  281000    282.35219 2.204312e-21 3.7288981e-20 5.2918338e-11        1e-09 
  282000    202.69111 1.2102229e-20 3.7288329e-20 1.0218416e-10        1e-09 
  283000    283.33251 2.0847322e-21 3.7291215e-20 5.1439918e-11        1e-09 
  284000    282.62285 2.1735103e-21 3.7291812e-20 5.0891741e-11        1e-09 
  285000    278.22183 2.7205986e-21 3.7292035e-20 5.212058e-11        1e-09 
  286000    278.77855 2.6511587e-21 3.7291773e-20 5.2814667e-11        1e-09 
  287000     230.3341 8.6731162e-21 3.7294094e-20 9.1080136e-11        1e-09 
  288000    264.36544 4.4444568e-21 3.7294119e-20 6.565188e-11        1e-09 
  289000    277.51452 2.8086029e-21 3.729215e-20 5.1301519e-11        1e-09 
  290000    275.41679 3.0692709e-21 3.7292158e-20 5.7424752e-11        1e-09 
  291000    268.26788 3.9576068e-21 3.729218e-20 5.7987897e-11        1e-09 
  292000    244.53612 6.9054166e-21 3.7291116e-20 6.8553241e-11        1e-09 
  293000    272.35346 3.448537e-21 3.729078e-20 5.7437818e-11        1e-09 
  294000    264.97147 4.3661537e-21 3.7291121e-20 6.3865719e-11        1e-09 
  295000    279.96582 2.5028568e-21   3.7291e-20 5.4338915e-11        1e-09 
  296000    286.27142 1.7195507e-21 3.7291219e-20 4.8577504e-11        1e-09 
  297000    269.88372 3.7557649e-21 3.729112e-20 5.7799021e-11        1e-09 
  298000    264.74649 4.3919732e-21 3.7288984e-20 6.0782139e-11        1e-09 
  299000     277.2995 2.8346844e-21 3.7291514e-20 5.3804284e-11        1e-09 
  300000    220.84762 9.8480387e-21 3.729024e-20 9.2176735e-11        1e-09 
  301000    266.24455 4.2078159e-21 3.7290974e-20 6.2652401e-11        1e-09 
  302000    300.11513            0 3.7291867e-20 3.7291867e-11        1e-09 
  303000    230.88905 8.6034149e-21 3.729335e-20 8.6737641e-11        1e-09 
  304000     283.8928 2.0167045e-21 3.7292809e-20 5.1571349e-11        1e-09 
  305000    232.69029 8.3788319e-21 3.7292587e-20 8.2407442e-11        1e-09 
  306000    242.91588 7.1095658e-21 3.7293938e-20 7.9759087e-11        1e-09 
  307000    264.24264 4.460565e-21 3.7294969e-20 5.9388882e-11        1e-09 
  308000    245.61678 6.7749498e-21 3.7294931e-20 7.9008241e-11        1e-09 
  309000    222.05316 9.7023077e-21 3.7294308e-20 8.9336106e-11        1e-09 
  310000    259.73787 5.0207555e-21 3.7295403e-20 6.1923004e-11        1e-09 
  311000     243.4884  7.04049e-21 3.7296002e-20 7.7811053e-11        1e-09 
  312000    272.87832 3.3870202e-21 3.7294481e-20 5.5414522e-11        1e-09 
  313000    251.12771 6.0888048e-21 3.7293566e-20 6.7806394e-11        1e-09 
  314000    225.87941 9.2251853e-21 3.729263e-20 8.5020759e-11        1e-09 
  315000    279.30434 2.5845833e-21 3.7290532e-20 5.2660457e-11        1e-09 
  316000    228.49739 8.8972509e-21 3.7290003e-20 8.4071733e-11        1e-09 
  317000    295.23832 6.0210185e-22 3.7287984e-20 4.2162879e-11        1e-09 
  318000    263.66615 4.5254237e-21 3.7288193e-20 5.8509143e-11        1e-09 
  319000    265.69105 4.2721121e-21 3.7286493e-20 6.3055966e-11        1e-09 
  320000    280.49314 2.4324472e-21 3.7286114e-20 4.9723571e-11        1e-09 
  321000    243.06922 7.0807071e-21 3.7284132e-20 7.1658993e-11        1e-09 
  322000    226.68241 9.1175274e-21 3.7284752e-20 8.604589e-11        1e-09 
  323000    289.74103 1.2826919e-21 3.7285488e-20 4.7302593e-11        1e-09 
  324000    269.96479 3.7407084e-21 3.7286138e-20 5.9184397e-11        1e-09 
  325000    241.60107 7.2665032e-21 3.7287498e-20 7.9533202e-11        1e-09 
  326000    226.16008 9.1860284e-21 3.7288349e-20 8.4394972e-11        1e-09 
  327000    263.79862 4.5066936e-21 3.7285925e-20 6.274907e-11        1e-09 
  328000    218.22311 1.016816e-20 3.7284245e-20 9.3321218e-11        1e-09 
  329000     273.1599 3.3424227e-21 3.7284872e-20 5.7849439e-11        1e-09 
  330000    231.49183 8.5212012e-21 3.7286037e-20 8.1946079e-11        1e-09 
  331000    218.74991 1.0102735e-20 3.7284279e-20 1.0534323e-10        1e-09 
  332000    298.24199 2.2323959e-22 3.7282353e-20 3.9547533e-11        1e-09 
  333000    279.64888 2.5353347e-21 3.7284095e-20 5.4101989e-11        1e-09 
  334000    261.76892 4.7583136e-21 3.7285336e-20 6.3700496e-11        1e-09 
  335000    275.29483 3.0778845e-21 3.7285617e-20 5.9249228e-11        1e-09 
  336000    280.78797 2.3967287e-21 3.728703e-20 5.0625778e-11        1e-09 
  337000    239.74187 7.4984219e-21 3.7288396e-20 7.3302613e-11        1e-09 
  338000    225.14094 9.3128215e-21 3.7288505e-20 8.3948829e-11        1e-09 
  339000    266.57418 4.1659021e-21 3.729002e-20 6.4160888e-11        1e-09 
  340000    268.83473 3.8837282e-21 3.7288739e-20 5.7037559e-11        1e-09 
  341000      273.788 3.2692331e-21 3.7289729e-20 5.6805285e-11        1e-09 
  342000    250.86262 6.1207691e-21 3.7292591e-20 6.6415455e-11        1e-09 
  343000    249.09137 6.341239e-21 3.7292968e-20 8.1440725e-11        1e-09 
  344000    266.57722 4.1682192e-21 3.7292715e-20 5.6336086e-11        1e-09 
  345000    281.56267 2.3071792e-21 3.7293744e-20 5.0255125e-11        1e-09 
  346000    273.39141 3.3213934e-21 3.729261e-20 5.405301e-11        1e-09 
  347000    246.71316 6.6370308e-21 3.7293247e-20 6.7353516e-11        1e-09 
  348000    283.02054 2.1249089e-21 3.7292627e-20 5.3336684e-11        1e-09 
  349000    223.64349  9.50185e-21 3.7291463e-20 1.1233555e-10        1e-09 
  350000    269.63418 3.7886415e-21 3.729299e-20 5.5873617e-11        1e-09 
  351000    239.23402 7.5669192e-21 3.7293788e-20 8.0781577e-11        1e-09 
  352000    272.29672 3.4602681e-21 3.729546e-20 5.4664876e-11        1e-09 
  353000    248.78531 6.3817587e-21 3.7295457e-20 6.8063046e-11        1e-09 
  354000    253.34292 5.8144113e-21 3.7294432e-20 6.3117049e-11        1e-09 
  355000    255.03952 5.6038165e-21 3.7294654e-20 7.2758867e-11        1e-09 
  356000    203.13454 1.205493e-20 3.7296131e-20 1.4016937e-10        1e-09 
  357000    237.43502 7.7934675e-21 3.7296795e-20 7.4712251e-11        1e-09 
  358000    244.57009 6.9055178e-21 3.7295439e-20 7.1811409e-11        1e-09 
  359000     277.7519 2.7822291e-21 3.7295274e-20 5.5207102e-11        1e-09 
  360000    254.32064 5.694708e-21 3.7296218e-20 6.6438124e-11        1e-09 
  361000    276.57708 2.9280985e-21 3.7295161e-20 5.3349811e-11        1e-09 
  362000     231.5827 8.5199019e-21 3.7296029e-20 8.9190966e-11        1e-09 
  363000    262.17878 4.7164887e-21 3.729444e-20 6.1307103e-11        1e-09 
  364000    280.76762 2.4055596e-21 3.7293332e-20 5.0581985e-11        1e-09 
  365000    228.44588 8.9077294e-21 3.729408e-20 8.034515e-11        1e-09 
  366000    257.55849 5.2907976e-21 3.7294639e-20 6.3604228e-11        1e-09 
  367000    258.11626 5.2223235e-21 3.7295472e-20 6.4975313e-11        1e-09 
  368000    227.03071 9.0838404e-21 3.7294344e-20 9.0422609e-11        1e-09 
  369000    279.42698 2.5716955e-21 3.7292882e-20 5.095097e-11        1e-09 
  370000    264.16016 4.4694861e-21 3.729364e-20 6.0654781e-11        1e-09 
  371000    278.18184 2.7258584e-21 3.7292327e-20 5.2494977e-11        1e-09 
  372000    165.43603 1.6736187e-20 3.7293027e-20 2.076502e-10        1e-09 
  373000    265.91109 4.250635e-21 3.7292358e-20 6.3835822e-11        1e-09 
  374000    269.43373 3.8133495e-21 3.729279e-20 5.588483e-11        1e-09 
  375000    274.75684 3.1508012e-21 3.7291684e-20 5.7294672e-11        1e-09 
  376000    278.98505 2.6254728e-21 3.7291746e-20 5.4597438e-11        1e-09 
  377000    294.89449 6.4903022e-22 3.7292187e-20 4.0607015e-11        1e-09 
  378000    235.55722 8.0225414e-21 3.7292536e-20 8.6970947e-11        1e-09 
  379000     278.1287 2.7320378e-21 3.7291903e-20 5.3968818e-11        1e-09 
  380000    274.20009 3.220503e-21 3.7292205e-20 5.8080762e-11        1e-09 
  381000    210.19047 1.1175598e-20 3.7293559e-20 9.5151176e-11        1e-09 
  382000     223.3262 9.5437243e-21 3.7293911e-20 8.538093e-11        1e-09 
  383000    277.34689 2.8324757e-21 3.7295194e-20 5.697728e-11        1e-09 
  384000    251.75706 6.0139502e-21 3.7296914e-20 6.6916708e-11        1e-09 
  385000    266.15881 4.2256382e-21 3.7298142e-20 6.032835e-11        1e-09 
  386000    282.59708 2.1829777e-21 3.7298077e-20 5.1747425e-11        1e-09 
  387000    300.05121 1.5861231e-23 3.7299785e-20 3.9174947e-11        1e-09 
  388000    260.24268 4.9642713e-21 3.7301645e-20 6.1283063e-11        1e-09 
  389000    273.70795 3.2906659e-21 3.7301214e-20 5.597344e-11        1e-09 
  390000    275.38189 3.0820131e-21 3.7300564e-20 5.8660955e-11        1e-09 
  391000    273.14321 3.3599696e-21 3.7300345e-20 5.651771e-11        1e-09 
  392000    249.59353 6.2862918e-21 3.7300418e-20 6.8762517e-11        1e-09 
  393000    260.40042 4.943062e-21 3.7300037e-20 6.5440247e-11        1e-09 
  394000    287.63575 1.5586982e-21 3.7299895e-20 4.4806499e-11        1e-09 
  395000    281.43508 2.3293638e-21 3.7300075e-20 5.3366342e-11        1e-09 
  396000    241.25475 7.3224427e-21 3.7300405e-20  7.79241e-11        1e-09 
  397000    264.37809 4.4502467e-21 3.7301481e-20 6.1935606e-11        1e-09 
  398000    264.12011 4.4807239e-21 3.7299902e-20 5.9031036e-11        1e-09 
  399000    256.22435 5.4610147e-21 3.7299077e-20 6.9161314e-11        1e-09 
  400000    119.32914 2.2471846e-20 3.729951e-20 2.3069092e-10        1e-09 
  401000    270.15199 3.7281369e-21 3.7296827e-20 5.5544926e-11        1e-09 
  402000    262.42132 4.6889908e-21 3.7297079e-20 6.0039303e-11        1e-09 
  403000    281.45965 2.3237945e-21 3.7297558e-20 5.3317584e-11        1e-09 
  404000    211.58848 1.1007385e-20 3.7299061e-20 1.1020795e-10        1e-09 
  405000    272.89113 3.3909232e-21 3.7299975e-20 5.6603294e-11        1e-09 
  406000    282.59975 2.1853273e-21 3.7300758e-20 5.3073269e-11        1e-09 
  407000    296.12695 5.0412581e-22 3.7300427e-20 4.1953117e-11        1e-09 
  408000    285.11353 1.8741024e-21 3.7301892e-20 4.9748674e-11        1e-09 
  409000    257.03807 5.3630574e-21 3.7302231e-20 6.2953442e-11        1e-09 
  410000    273.98256 3.2570436e-21 3.7301716e-20 5.2924741e-11        1e-09 
  411000    251.02259 6.109662e-21 3.7301362e-20 6.8131781e-11        1e-09 
  412000    214.92887 1.0595319e-20 3.7302065e-20 9.7109355e-11        1e-09 
  413000    261.74921 4.7762373e-21 3.7300811e-20 5.8967111e-11        1e-09 
  414000    210.96097 1.108525e-20 3.7298951e-20 9.4091429e-11        1e-09 
  415000    273.61663 3.2989567e-21 3.7298159e-20 5.4291434e-11        1e-09 
  416000    260.93212 4.8764684e-21 3.7299512e-20 6.4306215e-11        1e-09 
  417000    277.34212 2.8377157e-21 3.7299842e-20 5.4202298e-11        1e-09 
  418000    241.51091 7.2916202e-21 3.7301412e-20 9.0164613e-11        1e-09 
  419000      268.371 3.9538539e-21 3.7301242e-20 5.9724985e-11        1e-09 
  420000    251.05845 6.1039745e-21 3.730013e-20 6.4863346e-11        1e-09 
  421000    241.08243 7.3439711e-21 3.7300521e-20 9.0912987e-11        1e-09 
  422000    250.70446 6.1501295e-21 3.7302299e-20 6.6620982e-11        1e-09 
  423000    265.33854 4.3301442e-21 3.7300722e-20 6.2730213e-11        1e-09 
  424000    201.73429 1.2232661e-20 3.7299868e-20 1.3615133e-10        1e-09 
  425000    213.12719 1.0819534e-20 3.7302407e-20 1.0012611e-10        1e-09 
  426000    242.94446 7.114335e-21 3.7302258e-20 8.715526e-11        1e-09 
  427000    208.92945 1.1341916e-20 3.7303183e-20 1.0093144e-10        1e-09 
  428000    283.58804 2.0664356e-21 3.730467e-20 5.1438925e-11        1e-09 
  429000    285.41961 1.8391234e-21 3.7304947e-20 4.738366e-11        1e-09 
  430000    283.48557 2.0791705e-21 3.7304673e-20 5.1288023e-11        1e-09 
  431000    220.34701 9.9244692e-21 3.7304466e-20 8.6489896e-11        1e-09 
  432000    284.97789 1.8936878e-21 3.7304623e-20 4.7310049e-11        1e-09 
  433000    287.52121 1.5784568e-21 3.7305421e-20 4.9791142e-11        1e-09 
  434000    228.28142 8.9413983e-21 3.7307313e-20 8.2903319e-11        1e-09 
  435000    234.84027 8.1253404e-21 3.7306249e-20 7.6564797e-11        1e-09 
  436000    259.49736 5.0610021e-21 3.7305764e-20 6.0247112e-11        1e-09 
  437000    280.52764 2.4474617e-21 3.7305415e-20 5.1089138e-11        1e-09 
  438000    251.37852 6.0709042e-21 3.7306831e-20 7.5045382e-11        1e-09 
  439000    219.35771 1.0051021e-20 3.7308089e-20 1.0468398e-10        1e-09 
  440000    250.23686 6.214838e-21 3.7308904e-20 7.3149918e-11        1e-09 
  441000    235.63953 8.0293169e-21 3.730954e-20 8.8098774e-11        1e-09 
  442000     251.2294 6.0906664e-21 3.7308064e-20 6.8616168e-11        1e-09 
  443000     277.7686 2.7905795e-21  3.73057e-20 5.5403667e-11        1e-09 
  444000    238.47996 7.674235e-21 3.7307406e-20 7.6774057e-11        1e-09 
  445000    282.63591 2.1882969e-21 3.7308221e-20 4.8729885e-11        1e-09 
  446000    254.28431 5.7111245e-21 3.730812e-20 6.9391249e-11        1e-09 
  447000    252.51848 5.9289521e-21 3.7306529e-20 7.2306364e-11        1e-09 
  448000    237.29886 7.8199316e-21 3.7306341e-20 7.6410239e-11        1e-09 
  449000    283.01075 2.1412729e-21 3.7307775e-20 5.0099409e-11        1e-09 
  450000    249.15777 6.3454939e-21 3.7305473e-20 6.8183982e-11        1e-09 
  451000     282.6454 2.183824e-21 3.7304927e-20 5.3035911e-11        1e-09 
  452000    233.80806 8.2523817e-21 3.7305028e-20 8.6279532e-11        1e-09 
  453000    201.83725 1.2226472e-20 3.7306473e-20 1.6887128e-10        1e-09 
  454000    266.67608 4.1684445e-21 3.7305224e-20 6.1474082e-11        1e-09 
  455000    269.34089 3.8375317e-21 3.7305436e-20 6.1003406e-11        1e-09 
  456000    242.06634 7.2254721e-21 3.7304281e-20 7.2659503e-11        1e-09 
  457000    232.90792 8.3611563e-21 3.7301954e-20 1.1054714e-10        1e-09 
  458000    225.24785 9.3107447e-21 3.7299712e-20 8.6752469e-11        1e-09 
  459000    289.40762 1.3387012e-21 3.7300068e-20 4.7429119e-11        1e-09 
  460000    249.59849 6.2850542e-21 3.7299797e-20 6.6217092e-11        1e-09 
  461000    262.85057 4.6410107e-21 3.7302438e-20 6.0490951e-11        1e-09 
  462000    267.99814 4.0012125e-21 3.7302269e-20 6.0995271e-11        1e-09 
  463000    268.74899 3.9066539e-21 3.730101e-20 5.6943551e-11        1e-09 
  464000    271.60723 3.5506094e-21 3.7300127e-20 5.7888179e-11        1e-09 
  465000    245.97344 6.7350014e-21 3.7299301e-20 7.1802737e-11        1e-09 
  466000    278.90228 2.6405656e-21 3.7296555e-20 5.2063074e-11        1e-09 
  467000    256.00177 5.4861953e-21 3.7296601e-20 6.2484876e-11        1e-09 
  468000    273.41743 3.3242173e-21 3.7298667e-20 5.5344178e-11        1e-09 
  469000    269.22546 3.8455737e-21 3.7299135e-20 5.6831354e-11        1e-09 
  470000    276.48907 2.9435393e-21 3.7299666e-20 5.1497634e-11        1e-09 
  471000    159.70035 1.7455434e-20 3.7299566e-20 2.3068988e-10        1e-09 
  472000    284.93827 1.8932809e-21 3.7299293e-20 4.9126198e-11        1e-09 
  473000    276.32723 2.9633786e-21 3.7299395e-20 5.8716959e-11        1e-09 
  474000    211.17656  1.10592e-20 3.729969e-20 9.1826301e-11        1e-09 
  475000     241.1032 7.3420932e-21 3.7301224e-20 7.6704731e-11        1e-09 
  476000    282.71498 2.1730436e-21 3.7302793e-20 5.1341746e-11        1e-09 
  477000    206.58087 1.1634625e-20 3.7304062e-20 1.0176415e-10        1e-09 
  478000    293.27544 8.6130234e-22 3.7303279e-20 4.2989066e-11        1e-09 
  479000    241.10086 7.3434388e-21 3.7302278e-20 7.0736248e-11        1e-09 
  480000    266.21141 4.2233798e-21 3.730242e-20  6.45702e-11        1e-09 
  481000      262.143 4.7283351e-21 3.7301841e-20 6.021207e-11        1e-09 
  482000    267.20757 4.1001233e-21 3.7302944e-20 6.1576218e-11        1e-09 
  483000    212.39464 1.0911459e-20 3.7303306e-20 1.1415843e-10        1e-09 
  484000    299.03517 1.4627493e-22 3.7303947e-20 4.4948625e-11        1e-09 
  485000    259.09307 5.1101473e-21 3.7304673e-20 6.5220051e-11        1e-09 
  486000    246.14928 6.7198215e-21 3.730597e-20 7.4768722e-11        1e-09 
  487000    209.90583 1.1222588e-20 3.7305179e-20 1.0111314e-10        1e-09 
  488000    224.65619 9.3919767e-21 3.7307426e-20 1.0412178e-10        1e-09 
  489000    260.95875 4.8827554e-21 3.7309108e-20 6.3937208e-11        1e-09 
  490000    283.10638 2.1310346e-21 3.7309419e-20 4.9671592e-11        1e-09 
  491000    270.95391 3.6412247e-21 3.7309561e-20 5.7985085e-11        1e-09 
  492000    282.73299 2.1775026e-21 3.730949e-20 4.8346849e-11        1e-09 
  493000    165.77129 1.6710654e-20 3.7309152e-20 1.4258584e-10        1e-09 
  494000    247.46354 6.5583435e-21 3.7307801e-20 8.8903853e-11        1e-09 
  495000    247.39507 6.5684403e-21 3.7309389e-20 8.5614668e-11        1e-09 
  496000    233.38268 8.3081813e-21 3.7307971e-20 8.6106158e-11        1e-09 
  497000    272.56406 3.4402197e-21 3.7308631e-20 5.6629914e-11        1e-09 
  498000    253.50232  5.80985e-21 3.7309677e-20 6.6274419e-11        1e-09 
  499000    263.16837 4.6086107e-21 3.7309527e-20 5.9540406e-11        1e-09 
  500000    253.68324 5.7870154e-21 3.7309324e-20 6.682586e-11        1e-09 
  501000    275.94971 3.021286e-21 3.7310394e-20 5.1010876e-11        1e-09 
  502000    237.77118 7.7629716e-21 3.7308071e-20 8.1954137e-11        1e-09 
  503000    266.79224  4.15715e-21 3.7308363e-20 5.9209196e-11        1e-09 
  504000    230.23733 8.6968025e-21 3.7305756e-20 8.037995e-11        1e-09 
  505000    275.87981 3.0252377e-21 3.7305659e-20 5.6258829e-11        1e-09 
  506000    264.03242 4.4971235e-21 3.7305406e-20 6.3444691e-11        1e-09 
  507000    251.37443 6.0695358e-21 3.7304955e-20 7.0090421e-11        1e-09 
  508000     208.8171 1.1354015e-20 3.7301322e-20 1.2102954e-10        1e-09 
  509000    184.33785 1.439668e-20 3.7302232e-20 1.1696062e-10        1e-09 
  510000    240.36179 7.4356751e-21 3.7302679e-20 7.8417978e-11        1e-09 
  511000    247.37148 6.5643834e-21 3.7302401e-20 7.2255454e-11        1e-09 
  512000    297.65779 3.1435964e-22 3.7300881e-20 4.1575272e-11        1e-09 
  513000    286.13948 1.7461621e-21 3.7301435e-20 4.5431132e-11        1e-09 
  514000     280.1281 2.4921149e-21 3.7300422e-20 5.3763845e-11        1e-09 
  515000    243.32137 7.0654402e-21 3.7300197e-20  7.42434e-11        1e-09 
  516000    217.81331 1.0235431e-20 3.7300594e-20 9.5272518e-11        1e-09 
  517000    215.49028 1.0522989e-20 3.7299495e-20 9.4809309e-11        1e-09 
  518000    255.35268 5.5680429e-21 3.7297793e-20 6.4713531e-11        1e-09 
  519000    266.28756 4.2084591e-21 3.7296962e-20 5.8390059e-11        1e-09 
  520000    268.51498 3.9312192e-21 3.7296498e-20 5.6556425e-11        1e-09 
  521000    274.97968 3.1271093e-21 3.7295682e-20 6.1221057e-11        1e-09 
  522000    209.87516 1.121632e-20 3.7295101e-20 1.0538277e-10        1e-09 
  523000    235.90474 7.9816111e-21 3.7294789e-20 7.6328103e-11        1e-09 
  524000    283.52599 2.0658827e-21 3.7296407e-20 4.916715e-11        1e-09 
  525000    287.47452 1.5760117e-21 3.7297175e-20 4.6467654e-11        1e-09 
  526000    197.94496 1.2700721e-20 3.7297072e-20 1.3483918e-10        1e-09 
  527000    275.58951 3.0514282e-21 3.7295777e-20 5.1769705e-11        1e-09 
  528000     280.9592 2.3854088e-21 3.7296988e-20 5.0278782e-11        1e-09 
  529000    276.01094 3.0005718e-21 3.7297287e-20 5.4672621e-11        1e-09 
  530000    246.00477 6.7307692e-21 3.7298961e-20 7.6698123e-11        1e-09 
  531000    280.36324 2.461297e-21 3.7298822e-20 5.5426081e-11        1e-09 
  532000    196.47039 1.2885542e-20 3.7298665e-20 1.1868235e-10        1e-09 
  533000    267.97399 3.9992209e-21 3.7297277e-20 6.0160386e-11        1e-09 
  534000      264.781 4.3967878e-21 3.7298087e-20 6.0977022e-11        1e-09 
  535000    272.17082 3.4779268e-21 3.7297474e-20 5.6131723e-11        1e-09 
  536000    285.14869 1.866825e-21 3.7298984e-20 5.217628e-11        1e-09 
  537000    281.16108 2.362477e-21 3.7299141e-20 5.3356721e-11        1e-09 
  538000    247.98989 6.4858986e-21 3.7300759e-20 7.8926504e-11        1e-09 
  539000    237.80455 7.7496192e-21 3.7298864e-20 8.4423629e-11        1e-09 
  540000    218.06408 1.0204647e-20 3.7300971e-20 8.7456629e-11        1e-09 
  541000    241.16755 7.3353581e-21 3.7302485e-20 8.3342658e-11        1e-09 
  542000    280.36137 2.4646606e-21 3.7301954e-20 4.8989515e-11        1e-09 
  543000    262.85749 4.6371277e-21 3.7299414e-20 6.2123662e-11        1e-09 
  544000    275.63907 3.0477855e-21 3.7298292e-20 5.3548935e-11        1e-09 
  545000    261.41883  4.81729e-21 3.7300812e-20 6.0464705e-11        1e-09 
  546000    267.67559 4.041174e-21 3.7302151e-20 6.1101197e-11        1e-09 
  547000    262.66137 4.6640573e-21 3.7301975e-20 6.2618827e-11        1e-09 
  548000    260.05956 4.986154e-21 3.7300774e-20 6.3575325e-11        1e-09 
  549000    267.77179 4.0275042e-21 3.7300435e-20 5.9675806e-11        1e-09 
  550000    277.71512 2.7941647e-21 3.7302639e-20 5.0996343e-11        1e-09 
  551000    295.77463 5.5263176e-22 3.7305154e-20 4.2076968e-11        1e-09 
  552000     284.1117 2.0009533e-21 3.7304258e-20 4.8021439e-11        1e-09 
  553000    277.37615 2.8363864e-21 3.7302741e-20 5.2083945e-11        1e-09 
  554000    226.83212 9.117424e-21 3.7303251e-20 9.0055202e-11        1e-09 
  555000    227.30566 9.0590028e-21 3.7303671e-20 8.0421552e-11        1e-09 
  556000    212.14429 1.0941305e-20 3.7302044e-20 1.1409733e-10        1e-09 
  557000    263.02395 4.6187148e-21 3.7301686e-20 6.1044396e-11        1e-09 
  558000    271.74927 3.5355034e-21 3.730267e-20 5.7357239e-11        1e-09 
  559000    296.70518 4.3712616e-22 3.7305277e-20 4.3643893e-11        1e-09 
  560000    175.40851 1.5509658e-20 3.7305662e-20 1.5047947e-10        1e-09 
  561000    284.98988 1.8928065e-21 3.7305231e-20 4.8997489e-11        1e-09 
  562000    279.25199 2.6083376e-21 3.7307781e-20 5.106865e-11        1e-09 
  563000    274.11958 3.2449473e-21 3.7306645e-20 5.5020192e-11        1e-09 
  564000    232.60819 8.4036844e-21 3.7307238e-20 8.8209051e-11        1e-09 
  565000    259.78958 5.0271839e-21 3.7308257e-20 6.0879734e-11        1e-09 
  566000    273.73419 3.2928168e-21 3.7306627e-20 5.7386664e-11        1e-09 
  567000     234.7087 8.1430178e-21 3.7307578e-20 8.0842356e-11        1e-09 
  568000    281.73406 2.3011569e-21 3.7309019e-20 4.946184e-11        1e-09 
  569000    255.08465 5.6132498e-21 3.7309695e-20 6.7117776e-11        1e-09 
  570000    219.26914 1.0062974e-20 3.7309037e-20 9.6354472e-11        1e-09 
  571000    263.93336 4.5120353e-21 3.7308008e-20 6.3456514e-11        1e-09 
  572000    251.36833 6.0713036e-21 3.7305965e-20 7.3690532e-11        1e-09 
  573000    282.78213 2.1664412e-21 3.7304535e-20 4.9572117e-11        1e-09 
  574000    253.66668 5.7848734e-21 3.7305124e-20 6.5101096e-11        1e-09 
  575000    230.76565 8.6313015e-21 3.7305903e-20 8.7049808e-11        1e-09 
  576000    269.78394 3.7808969e-21 3.7303854e-20 5.9331919e-11        1e-09 
  577000    235.22065 8.075746e-21 3.730392e-20 7.9187874e-11        1e-09 
  578000    218.50328 1.0153415e-20 3.7304313e-20 1.0434894e-10        1e-09 
  579000    260.48627 4.9359429e-21 3.7303586e-20 6.3301082e-11        1e-09 
  580000    267.64582 4.0459809e-21 3.7303258e-20 6.2327407e-11        1e-09 
  581000    266.83491 4.1469385e-21 3.7303453e-20 5.8670771e-11        1e-09 
  582000    266.31245 4.2119823e-21 3.7303578e-20   6.2589e-11        1e-09 
  583000     272.5978 3.4303184e-21 3.7302922e-20 5.3947529e-11        1e-09 
  584000    269.97712 3.7540219e-21 3.7300984e-20 5.7619978e-11        1e-09 
  585000    214.31646 1.0669441e-20 3.730009e-20 9.7369875e-11        1e-09 
  586000     286.5718 1.6890359e-21 3.7298028e-20 5.3554995e-11        1e-09 
  587000    269.37818 3.8236253e-21 3.7296163e-20 5.7330636e-11        1e-09 
  588000     291.7443 1.0450595e-21 3.7296779e-20 4.3268519e-11        1e-09 
  589000    256.01722 5.4848897e-21 3.7297215e-20 6.4933959e-11        1e-09 
  590000    279.79155 2.5299596e-21 3.7296447e-20 5.4374904e-11        1e-09 
  591000    250.98867 6.1110017e-21 3.7298487e-20 6.5886748e-11        1e-09 
  592000    212.26598 1.091988e-20 3.7295739e-20 9.256909e-11        1e-09 
  593000    229.18436 8.8189865e-21  3.72971e-20 8.9598493e-11        1e-09 
  594000    256.27397 5.4532454e-21 3.7297474e-20 6.7633979e-11        1e-09 
  595000    230.27241 8.6848504e-21 3.7298162e-20 9.4773651e-11        1e-09 
  596000    261.32931 4.8261888e-21 3.7298586e-20 6.4011988e-11        1e-09 
  597000    270.31644 3.7100617e-21 3.7299186e-20 5.7999968e-11        1e-09 
  598000    280.93361 2.3927664e-21 3.7301166e-20 5.3650911e-11        1e-09 
  599000    282.69486 2.1738027e-21 3.7301052e-20 5.1492689e-11        1e-09 
  600000    268.03734 3.9946175e-21 3.7300545e-20 6.0544419e-11        1e-09 
  601000    274.58169 3.1826949e-21 3.7301813e-20 5.3466778e-11        1e-09 
  602000    198.96463 1.2576909e-20 3.7299963e-20 1.0682143e-10        1e-09 
  603000    253.62777 5.7850196e-21 3.7300435e-20 6.6039213e-11        1e-09 
  604000    244.07657 6.9718845e-21 3.7300482e-20 8.4268598e-11        1e-09 
  605000    267.99309 4.0003632e-21 3.7300792e-20 5.8035183e-11        1e-09 
  606000    249.44026 6.3043003e-21 3.7299382e-20 7.8661004e-11        1e-09 
  607000    258.68861 5.1530557e-21 3.7297324e-20 6.2033302e-11        1e-09 
  608000    213.68508 1.0746584e-20 3.729878e-20 1.1078417e-10        1e-09 
  609000    282.51784 2.1956097e-21 3.7300863e-20 4.8116354e-11        1e-09 
  610000    253.20576 5.8380141e-21 3.7300991e-20 7.7268611e-11        1e-09 
  611000    263.81686 4.5157907e-21 3.7297288e-20 5.839584e-11        1e-09 
  612000    229.87589 8.7308743e-21 3.7294916e-20 9.1630723e-11        1e-09 
  613000    271.78866 3.5197562e-21 3.7291818e-20 5.3960287e-11        1e-09 
  614000    236.38691 7.9175855e-21 3.7290676e-20 9.5423242e-11        1e-09 
  615000    257.20565 5.333082e-21 3.729308e-20 6.3146878e-11        1e-09 
  616000    276.62917 2.9189917e-21 3.7292527e-20 5.2106973e-11        1e-09 
  617000    295.40224 5.8233097e-22 3.7288581e-20 4.0416874e-11        1e-09 
  618000    272.52233 3.4248457e-21 3.7288072e-20 5.7142457e-11        1e-09 
  619000    259.37539 5.0568602e-21 3.7286466e-20 6.3281593e-11        1e-09 
  620000    248.61633 6.3933644e-21 3.7286065e-20 8.1373897e-11        1e-09 
  621000    267.41126 4.0568224e-21 3.7284954e-20  6.06588e-11        1e-09 
  622000    200.89045 1.2326139e-20 3.7288493e-20 1.3134653e-10        1e-09 
  623000    236.76222 7.8687902e-21 3.7288517e-20 7.6672106e-11        1e-09 
  624000     284.6384 1.9207423e-21 3.7289493e-20 5.3086238e-11        1e-09 
  625000     260.4782 4.9213145e-21 3.7287954e-20 6.4199562e-11        1e-09 
  626000     249.0262 6.3444058e-21 3.7288037e-20 6.8879314e-11        1e-09 
  627000    239.72909 7.4949181e-21 3.7283304e-20 7.479511e-11        1e-09 
  628000    269.57624 3.7877697e-21 3.7284918e-20 5.9139615e-11        1e-09 
  629000    260.92571 4.8637232e-21 3.728597e-20 6.1404754e-11        1e-09 
  630000    271.48615 3.5510682e-21 3.728554e-20 5.6489467e-11        1e-09 
  631000    232.22289 8.4326363e-21 3.7288313e-20 8.9768428e-11        1e-09 
  632000    266.68533 4.1494423e-21 3.7287371e-20 6.0480252e-11        1e-09 
  633000     271.0845 3.6016532e-21 3.7286216e-20 6.2283488e-11        1e-09 
  634000    259.58118 5.0314832e-21 3.7286661e-20 6.3220615e-11        1e-09 
  635000    262.55784 4.6622407e-21 3.7287294e-20 6.4547278e-11        1e-09 
  636000    277.07234 2.8595868e-21 3.728819e-20 5.575415e-11        1e-09 
  637000     257.6347 5.2734019e-21 3.7286712e-20 6.7653581e-11        1e-09 
  638000    258.12367 5.2121757e-21 3.7286245e-20 6.145267e-11        1e-09 
  639000    286.58921 1.6771633e-21 3.7288319e-20 4.9044241e-11        1e-09 
  640000    246.34182 6.6784708e-21 3.7288544e-20 7.9365602e-11        1e-09 
  641000    249.47018 6.2878426e-21 3.7286642e-20 6.8983162e-11        1e-09 
  642000    268.64015 3.904915e-21 3.7285746e-20 6.2420616e-11        1e-09 
  643000     263.9604 4.4882489e-21 3.7287581e-20 6.0254164e-11        1e-09 
  644000    257.58233 5.2814757e-21 3.7288279e-20 6.2582433e-11        1e-09 
  645000    223.88143 9.4680998e-21 3.7287279e-20 8.1259872e-11        1e-09 
  646000    270.66818 3.654833e-21 3.7287665e-20 5.6954616e-11        1e-09 
  647000    251.40649 6.0469422e-21 3.7286345e-20 7.6233003e-11        1e-09 
  648000     244.1562 6.949225e-21 3.7287717e-20 7.5446049e-11        1e-09 
  649000    263.51636 4.5410739e-21 3.7285231e-20 6.0879652e-11        1e-09 
  650000    269.86821 3.7528031e-21 3.7286232e-20 5.5258289e-11        1e-09 
  651000    269.91377 3.7477536e-21 3.7286843e-20 5.6400272e-11        1e-09 
  652000    248.76387 6.3776517e-21 3.7288686e-20 8.3136902e-11        1e-09 
  653000     235.6746 8.0063096e-21 3.7290891e-20 7.5411022e-11        1e-09 
  654000    262.55499 4.6665311e-21 3.729123e-20 6.239766e-11        1e-09 
  655000    236.74075 7.8725546e-21 3.7289614e-20 8.1380157e-11        1e-09 
  656000    266.68532 4.1512715e-21 3.7289198e-20 6.4577183e-11        1e-09 
  657000    230.73475 8.6201859e-21 3.7290948e-20 9.5928594e-11        1e-09 
  658000    216.33705 1.0411366e-20 3.7293091e-20 1.0398158e-10        1e-09 
  659000    278.94605 2.6318401e-21 3.7293267e-20 5.1199919e-11        1e-09 
  660000    273.29756  3.33477e-21 3.7294325e-20 5.6939791e-11        1e-09 
  661000    271.19398 3.5963549e-21 3.7294522e-20 5.7768766e-11        1e-09 
  662000    237.92818 7.7302623e-21 3.729487e-20 7.5844761e-11        1e-09 
  663000    287.37333 1.5855179e-21 3.7294108e-20 4.6417504e-11        1e-09 
  664000    255.43524 5.5536809e-21 3.729369e-20 6.4314759e-11        1e-09 
  665000    254.17241 5.7116537e-21 3.7294745e-20 7.6566892e-11        1e-09 
  666000    251.30111 6.0702755e-21 3.7296584e-20 7.063489e-11        1e-09 
  667000    245.90292 6.741446e-21 3.7296982e-20 8.2903393e-11        1e-09 
  668000    285.47501 1.823673e-21 3.7296379e-20 5.2312955e-11        1e-09 
  669000    215.54301 1.0514092e-20 3.7297151e-20 9.9216074e-11        1e-09 
  670000     249.1837 6.3319402e-21 3.7295142e-20 6.8218791e-11        1e-09 
  671000    228.70749 8.8762449e-21 3.7295102e-20 1.0868382e-10        1e-09 
  672000    286.05203 1.7494428e-21 3.7293849e-20 4.9268201e-11        1e-09 
  673000    244.49565 6.9152338e-21 3.7295906e-20 7.0036167e-11        1e-09 
  674000    235.34718 8.0526596e-21 3.7296555e-20 8.3646684e-11        1e-09 
  675000     274.4872 3.1896551e-21 3.7297033e-20 5.530972e-11        1e-09 
  676000    278.49203 2.6906393e-21 3.7295652e-20 5.8538694e-11        1e-09 
  677000     227.0522 9.0844334e-21 3.7297607e-20 8.3458964e-11        1e-09 
  678000    284.08521 1.994708e-21 3.7294721e-20 4.953303e-11        1e-09 
  679000    223.15099 9.5664707e-21 3.7294886e-20 9.6250887e-11        1e-09 
  680000     265.1854 4.3431252e-21 3.7294675e-20 5.8707462e-11        1e-09 
  681000    210.51157  1.11358e-20 3.729366e-20 1.0131852e-10        1e-09 
  682000    265.73552 4.2711696e-21 3.7291077e-20 5.9180657e-11        1e-09 
  683000     255.0425 5.596414e-21 3.7287622e-20 6.4253043e-11        1e-09 
  684000    263.68307 4.5228743e-21 3.7287746e-20 5.9312018e-11        1e-09 
  685000    275.43083 3.0620269e-21 3.7286658e-20 5.515259e-11        1e-09 
  686000    260.36756 4.9339827e-21 3.7286875e-20 6.3761254e-11        1e-09 
  687000    223.92536 9.4629477e-21 3.7287585e-20 8.9882312e-11        1e-09 
  688000    267.18963 4.0872037e-21 3.7287796e-20 5.7948184e-11        1e-09 
  689000    281.10681 2.3596134e-21 3.7289534e-20 5.036858e-11        1e-09 
  690000    278.10876 2.7321198e-21 3.7289507e-20 5.2070487e-11        1e-09 
  691000    245.22678 6.8167339e-21 3.7288255e-20 7.9034093e-11        1e-09 
  692000    215.11125 1.0555857e-20 3.7285267e-20 9.0668235e-11        1e-09 
  693000    225.19974 9.3029242e-21 3.7285914e-20 1.2636349e-10        1e-09 
  694000    253.66407 5.7687555e-21 3.7288682e-20 6.862586e-11        1e-09 
  695000    280.63286 2.4164353e-21 3.7287463e-20 5.2157287e-11        1e-09 
  696000    286.68843 1.6639029e-21 3.7287388e-20 4.7696201e-11        1e-09 
  697000    280.47694 2.4342762e-21 3.728593e-20 5.2749679e-11        1e-09 
  698000    261.95082 4.7360499e-21 3.7285675e-20 6.1837183e-11        1e-09 
  699000    288.29653 1.4641528e-21 3.7287458e-20 4.6235664e-11        1e-09 
  700000     288.2442 1.4706205e-21 3.7287422e-20 4.949361e-11        1e-09 
  701000    249.27088 6.3139831e-21 3.7288017e-20 7.8423024e-11        1e-09 
  702000    247.75752 6.5028962e-21 3.7288883e-20 6.9378807e-11        1e-09 
  703000    224.98802 9.3317185e-21 3.7288401e-20 1.1748152e-10        1e-09 
  704000    270.86549 3.6317501e-21 3.7289099e-20 5.3685426e-11        1e-09 
  705000    225.23275 9.3018311e-21 3.7288923e-20 9.4459245e-11        1e-09 
  706000     240.8606 7.359857e-21 3.7288843e-20 7.9288981e-11        1e-09 
  707000    255.75461 5.5095785e-21 3.7289271e-20 6.470375e-11        1e-09 
  708000    215.59878  1.04994e-20 3.7289389e-20 1.0891526e-10        1e-09 
  709000    221.60162 9.7549328e-21 3.7290826e-20 9.0593182e-11        1e-09 
  710000    262.54048 4.6674691e-21 3.7290364e-20 5.9798988e-11        1e-09 
  711000    253.44102 5.7962712e-21 3.7288481e-20 6.3672736e-11        1e-09 
  712000    260.39299 4.933785e-21 3.7289836e-20 6.232861e-11        1e-09 
  713000    235.16537 8.0678422e-21 3.7289146e-20 8.3200851e-11        1e-09 
  714000     227.5789 9.0098816e-21 3.7288502e-20 9.4247938e-11        1e-09 
  715000    235.48583 8.0274389e-21 3.7288564e-20 7.5899046e-11        1e-09 
  716000    230.53611 8.6436149e-21 3.7289694e-20 9.4956457e-11        1e-09 
  717000    254.75521 5.6319965e-21 3.7287506e-20 6.7758841e-11        1e-09 
  718000    293.02839 8.7768834e-22 3.7288967e-20 4.2936507e-11        1e-09 
  719000    273.59373 3.2931364e-21 3.7289493e-20 5.3245058e-11        1e-09 
  720000    287.89716 1.5155138e-21 3.7289194e-20 4.810947e-11        1e-09 
  721000     267.2221 4.083133e-21 3.728776e-20 5.8546745e-11        1e-09 
  722000    216.19465 1.0421446e-20 3.7285477e-20 9.5151768e-11        1e-09 
  723000    259.60875 5.0287155e-21 3.7287319e-20 6.6633623e-11        1e-09 
  724000    214.65355 1.0615315e-20 3.7287851e-20 1.1428777e-10        1e-09 
  725000    226.23194 9.1729679e-21 3.7284217e-20 8.2694733e-11        1e-09 
  726000    267.03535 4.1019018e-21 3.7283323e-20 5.9468967e-11        1e-09 
  727000    208.67007 1.1350991e-20 3.7280028e-20 1.376526e-10        1e-09 
  728000    230.11533 8.6836293e-21 3.7277423e-20 8.6584297e-11        1e-09 
  729000    258.88785 5.1084907e-21 3.7277516e-20 6.3476613e-11        1e-09 
  730000     298.3268 2.0694951e-22 3.7276601e-20 4.1337149e-11        1e-09 
  731000    235.45146 8.021147e-21 3.7278001e-20 7.6718052e-11        1e-09 
  732000    234.03716 8.1958045e-21 3.727692e-20 7.5719262e-11        1e-09 
  733000    223.39722 9.5167812e-21 3.7275793e-20 1.0384711e-10        1e-09 
  734000    214.25381 1.0654014e-20 3.7276878e-20 8.8537783e-11        1e-09 
  735000    297.55107 3.0261361e-22 3.7275874e-20 4.3378615e-11        1e-09 
  736000    253.63898 5.7608296e-21 3.7277637e-20 6.3315923e-11        1e-09 
  737000    248.83357 6.3575513e-21 3.7277247e-20 8.053116e-11        1e-09 
  738000    266.11377 4.2099715e-21 3.7276879e-20 6.0326785e-11        1e-09 
  739000    260.10246 4.9552269e-21 3.7275178e-20 6.7380395e-11        1e-09 
  740000      191.827 1.3439123e-20 3.7275265e-20 2.064228e-10        1e-09 
  741000    264.66669 4.3911001e-21 3.7278195e-20 5.8286277e-11        1e-09 
  742000    251.70097 5.9992074e-21 3.7275201e-20 7.8515908e-11        1e-09 
  743000    251.70061 6.0001208e-21 3.727607e-20 8.2593188e-11        1e-09 
  744000    248.41262 6.4097219e-21 3.727711e-20 6.8549354e-11        1e-09 
  745000    270.41471 3.6761209e-21 3.7277457e-20 6.0294723e-11        1e-09 
  746000       254.57 5.6446353e-21 3.7277131e-20 6.5917352e-11        1e-09 
  747000    250.54856 6.1445774e-21 3.7277375e-20 6.6356143e-11        1e-09 
  748000    256.68981 5.381951e-21 3.7277851e-20 6.4420847e-11        1e-09 
  749000    290.33252 1.2003752e-21 3.7276669e-20 4.5544751e-11        1e-09 
  750000    285.34194 1.8205621e-21 3.7276734e-20 5.0417005e-11        1e-09 
  751000     217.4202 1.0260266e-20 3.7276582e-20 9.3042637e-11        1e-09 
  752000    277.79573 2.7584896e-21 3.727698e-20 5.350742e-11        1e-09 
  753000    247.41794 6.5319209e-21 3.7275712e-20 6.908714e-11        1e-09 
  754000    239.14668 7.5603643e-21 3.727638e-20 8.1812115e-11        1e-09 
  755000    248.72516 6.3690323e-21 3.7275256e-20 6.7924583e-11        1e-09 
  756000    280.95566 2.3640781e-21 3.7275217e-20 5.0735368e-11        1e-09 
  757000     245.5262 6.7654422e-21 3.7274169e-20 7.0155731e-11        1e-09 
  758000    244.52308 6.8900455e-21 3.7274125e-20 8.1458681e-11        1e-09 
  759000     217.7121 1.0218109e-20 3.7270696e-20 1.0555171e-10        1e-09 
  760000    256.34323 5.4185867e-21 3.7271421e-20 7.390223e-11        1e-09 
  761000     231.9128 8.4523969e-21 3.7269542e-20 1.0321571e-10        1e-09 
  762000    280.99238 2.3538185e-21 3.7269521e-20 5.0216523e-11        1e-09 
  763000    254.62136 5.6300332e-21 3.7268911e-20 6.6354476e-11        1e-09 
  764000    183.68038 1.4445337e-20 3.7269192e-20 1.8198913e-10        1e-09 
  765000    248.92828 6.3396375e-21 3.7271101e-20 7.1160158e-11        1e-09 
  766000    244.39377 6.9038631e-21 3.7271875e-20 7.2906643e-11        1e-09 
  767000    217.89792 1.0196282e-20 3.7271959e-20 9.0084607e-11        1e-09 
  768000    212.83564 1.082869e-20 3.7275334e-20 1.1211676e-10        1e-09 
  769000     274.2234 3.2009771e-21 3.7275576e-20 5.3545868e-11        1e-09 
  770000    270.64092 3.6460625e-21 3.7275507e-20 5.7361356e-11        1e-09 
  771000    186.97552 1.4040186e-20 3.727349e-20  1.43999e-10        1e-09 
  772000    227.98693 8.9450527e-21 3.7274375e-20 1.0259769e-10        1e-09 
  773000     283.4469 2.0531842e-21 3.7273881e-20 5.3209735e-11        1e-09 
  774000    275.79874 3.0033842e-21 3.7273732e-20 5.5480999e-11        1e-09 
  775000    201.12373 1.2280357e-20 3.7271697e-20 1.3121141e-10        1e-09 
  776000    258.09274 5.2015413e-21 3.7271767e-20 6.408799e-11        1e-09 
  777000    298.26141 2.0983497e-22 3.7271361e-20 4.3181986e-11        1e-09 
  778000    255.47259 5.527121e-21 3.727177e-20 6.4459138e-11        1e-09 
  779000    267.65089 4.0134853e-21 3.7271393e-20 5.6505668e-11        1e-09 
  780000    250.37925 6.1591061e-21 3.7270865e-20 6.9511343e-11        1e-09 
  781000    243.76642 6.9809416e-21   3.7271e-20 7.1992001e-11        1e-09 
  782000    242.10162 7.1878892e-21 3.7271083e-20 8.3199171e-11        1e-09 
  783000    291.23205 1.0829839e-21 3.7271052e-20 4.3765986e-11        1e-09 
  784000    212.52617 1.0864066e-20 3.7272257e-20 9.5687012e-11        1e-09 
  785000    238.15534 7.6788277e-21 3.7271662e-20 7.6973062e-11        1e-09 
  786000    265.93758 4.2277841e-21 3.7272799e-20 5.8108008e-11        1e-09 
  787000    268.98157 3.8469752e-21 3.7270231e-20 5.6768544e-11        1e-09 
  788000     171.6798 1.5936519e-20  3.72692e-20 1.6637162e-10        1e-09 
  789000    293.67792 7.7645615e-22 3.7268445e-20 4.4381793e-11        1e-09 
  790000     267.7145 4.0026184e-21 3.726843e-20 5.6865679e-11        1e-09 
  791000    267.58008 4.0177335e-21 3.7266842e-20 5.8521904e-11        1e-09 
  792000    265.91764 4.2233767e-21 3.7265914e-20 6.0348451e-11        1e-09 
  793000    278.27051 2.6871997e-21 3.7264686e-20 5.2513993e-11        1e-09 
  794000    257.14722 5.3110567e-21 3.7263794e-20  6.83556e-11        1e-09 
  795000    253.54219 5.758483e-21 3.7263264e-20 6.8622228e-11        1e-09 
  796000    266.17307 4.1900282e-21 3.7264304e-20 5.9146053e-11        1e-09 
  797000     270.8263 3.6143434e-21 3.7266823e-20 5.4701495e-11        1e-09 
  798000    280.49047 2.4153616e-21 3.7268697e-20 5.4554441e-11        1e-09 
  799000    253.69094 5.7463151e-21 3.7269579e-20 6.4981877e-11        1e-09 
  800000      240.418 7.3957235e-21 3.7269713e-20 7.2302349e-11        1e-09 
  801000    247.76809 6.4835928e-21 3.7270893e-20 7.5753379e-11        1e-09 
  802000     254.8478 5.6053583e-21 3.7272373e-20 7.0288607e-11        1e-09 
  803000    269.57576 3.775953e-21 3.7273043e-20 5.4659956e-11        1e-09 
  804000    255.97879 5.4642494e-21 3.7271799e-20 6.4805773e-11        1e-09 
  805000    264.97334 4.3469527e-21 3.7272153e-20 5.9699715e-11        1e-09 
  806000    240.45669 7.3931329e-21 3.727193e-20 7.9545272e-11        1e-09 
  807000    268.37256 3.9233405e-21 3.7270922e-20 6.1366041e-11        1e-09 
  808000    211.21557 1.1025402e-20 3.7270739e-20 9.280197e-11        1e-09 
  809000     235.3524 8.0275671e-21 3.7272112e-20 8.1456187e-11        1e-09 
  810000    193.20417 1.3266172e-20 3.7273439e-20 1.0504908e-10        1e-09 
  811000    241.57493 7.254621e-21 3.7272368e-20 7.6400202e-11        1e-09 
  812000    254.17335 5.6889743e-21 3.7272183e-20 6.5461972e-11        1e-09 
  813000    276.95778 2.8574359e-21 3.7271805e-20 5.4757504e-11        1e-09 
  814000    265.70418 4.2557082e-21 3.727172e-20 5.8024207e-11        1e-09 
  815000     257.5488 5.2667911e-21 3.7269427e-20 6.5143938e-11        1e-09 
  816000    257.51925 5.2721979e-21 3.7271162e-20 6.7264678e-11        1e-09 
  817000    243.67749 6.9947608e-21 3.7273768e-20 7.3545705e-11        1e-09 
  818000    231.86548 8.4626631e-21 3.7273929e-20 8.6296173e-11        1e-09 
  819000    243.90145 6.9691473e-21 3.7275985e-20 7.4451035e-11        1e-09 
  820000    184.30986 1.4373852e-20 3.7275925e-20 1.5172173e-10        1e-09 
  821000    273.67299 3.2689575e-21 3.7275163e-20 5.5843783e-11        1e-09 
  822000    268.19049 3.9495837e-21 3.7274541e-20 5.9461092e-11        1e-09 
  823000    235.34545 8.0297688e-21 3.7273449e-20 7.5669113e-11        1e-09 
  824000     285.4791 1.8007397e-21 3.7273954e-20 4.7890106e-11        1e-09 
  825000    248.78363 6.3593717e-21 3.7272862e-20 6.7739945e-11        1e-09 
  826000    281.41211 2.3043247e-21 3.7272181e-20 5.0355841e-11        1e-09 
  827000     283.8132 2.0064897e-21 3.7272703e-20 4.7662053e-11        1e-09 
  828000    283.25179 2.0755673e-21 3.727202e-20 4.7955349e-11        1e-09 
  829000    242.60241 7.1294113e-21 3.7274832e-20 8.4044243e-11        1e-09 
  830000    253.89036 5.7260732e-21 3.7274118e-20 6.4665764e-11        1e-09 
  831000    228.64369 8.8646528e-21 3.7275583e-20 8.2244001e-11        1e-09 
  832000     260.5699 4.8981738e-21 3.7276208e-20 6.6050369e-11        1e-09 
  833000    271.76552 3.5087786e-21 3.7277964e-20 5.4710415e-11        1e-09 
  834000    252.29534 5.9268654e-21 3.7276715e-20 8.2781544e-11        1e-09 
  835000    241.23928 7.3015091e-21 3.7277549e-20 8.464227e-11        1e-09 
  836000    255.16851 5.5695705e-21 3.7276436e-20 6.5593882e-11        1e-09 
  837000    239.48793 7.5186271e-21 3.7277047e-20 7.6788286e-11        1e-09 
  838000    218.52846 1.0121963e-20 3.727599e-20 1.0900584e-10        1e-09 
  839000    283.29246 2.075513e-21 3.727702e-20 4.7953583e-11        1e-09 
  840000    291.19131 1.094095e-21  3.72771e-20 4.509275e-11        1e-09 
  841000    251.61051  6.01149e-21 3.7276243e-20 6.7189292e-11        1e-09 
  842000    271.78445 3.5031321e-21 3.7274669e-20 5.6273865e-11        1e-09 
  843000    256.95819 5.3431301e-21 3.7272379e-20 6.1353815e-11        1e-09 
  844000    224.21648 9.4086593e-21 3.7269471e-20 9.3792657e-11        1e-09 
  845000    182.60794 1.4577742e-20 3.7268337e-20 2.3159155e-10        1e-09 
  846000    230.69212 8.6027529e-21 3.7268217e-20 7.888066e-11        1e-09 
  847000     278.6473 2.6427179e-21 3.7267024e-20 5.3896281e-11        1e-09 
  848000    258.74406 5.1173227e-21 3.7268481e-20 6.4201957e-11        1e-09 
  849000    278.99693 2.602544e-21 3.7270294e-20 5.1911699e-11        1e-09 
  850000    262.96345 4.5955356e-21 3.7270989e-20 5.8488023e-11        1e-09 
  851000    277.99845 2.7286104e-21 3.727229e-20 5.3258352e-11        1e-09 
  852000     259.0261 5.0857614e-21 3.7271966e-20 6.6038648e-11        1e-09 
  853000    242.54421 7.1326983e-21 3.7270886e-20 6.8260022e-11        1e-09 
  854000     254.2715 5.6740046e-21 3.7269409e-20 6.8214237e-11        1e-09 
  855000    223.24627 9.5328901e-21 3.7273145e-20 1.1890879e-10        1e-09 
  856000    288.27926 1.4504327e-21 3.7271592e-20 4.9541599e-11        1e-09 
  857000    264.56195 4.3964553e-21 3.7270536e-20 6.0433394e-11        1e-09 
  858000     237.1915 7.7961779e-21 3.7269247e-20 7.9804219e-11        1e-09 
  859000    280.97946 2.3553348e-21 3.7269431e-20 5.3494783e-11        1e-09 
  860000    219.53207 9.9917553e-21 3.7270488e-20 9.3612913e-11        1e-09 
  861000      220.724 9.8429592e-21  3.72698e-20 1.0128275e-10        1e-09 
  862000    277.72088 2.7604665e-21 3.7269657e-20 5.1439928e-11        1e-09 
  863000    258.31036 5.1713226e-21 3.726859e-20 6.3626781e-11        1e-09 
  864000    193.78134 1.3187583e-20 3.7266568e-20 1.1396675e-10        1e-09 
  865000      258.435 5.1520134e-21 3.7264768e-20 6.5595923e-11        1e-09 
  866000     262.2457 4.6759397e-21 3.7262207e-20 6.6869213e-11        1e-09 
  867000    229.55067 8.7389111e-21 3.7262541e-20 8.632421e-11        1e-09 
  868000    275.95275 2.9736224e-21 3.7263107e-20 5.4016235e-11        1e-09 
  869000    275.47084 3.0321167e-21 3.726172e-20 5.4098934e-11        1e-09 
  870000    255.86645 5.4693466e-21 3.7262936e-20 6.5841118e-11        1e-09 
  871000    236.10493 7.9253077e-21 3.7263361e-20 8.2641309e-11        1e-09 
  872000    266.55624 4.140369e-21 3.7262258e-20 5.910585e-11        1e-09 
  873000    235.53719 7.9949146e-21 3.7262421e-20 7.5452461e-11        1e-09 
  874000    286.09906 1.7121132e-21 3.7262364e-20 4.6648852e-11        1e-09 
  875000     234.2068 8.162939e-21 3.7265134e-20 8.3438822e-11        1e-09 
  876000    198.87489 1.2555966e-20 3.7267868e-20 1.1932019e-10        1e-09 
  877000    263.32455 4.5510342e-21 3.7271357e-20 6.285947e-11        1e-09 
  878000    273.58117 3.2756194e-21 3.7270415e-20 5.7610403e-11        1e-09 
  879000    275.52397 3.0333615e-21 3.7269566e-20 5.2528948e-11        1e-09 
  880000    257.23876 5.3045716e-21 3.7268684e-20 6.4022033e-11        1e-09 
  881000    274.25107 3.1906998e-21 3.7268737e-20 5.6047729e-11        1e-09 
  882000    269.39231 3.792963e-21 3.7267257e-20 5.9452449e-11        1e-09 
  883000    231.33812 8.5228364e-21 3.7268573e-20 8.0114677e-11        1e-09 
  884000    256.25084 5.4257666e-21 3.7267121e-20 6.6327154e-11        1e-09 
  885000    279.17447 2.5792306e-21 3.7269041e-20 5.1109716e-11        1e-09 
  886000    251.53568 6.0137695e-21 3.7269224e-20 6.7587312e-11        1e-09 
  887000    204.34475 1.1879555e-20 3.7271135e-20 1.1447165e-10        1e-09 
  888000    285.23318 1.8288477e-21 3.7271505e-20 4.9292192e-11        1e-09 
  889000    258.72206 5.1245728e-21 3.7272997e-20 6.0358725e-11        1e-09 
  890000     233.4506 8.2639264e-21 3.7272156e-20 8.1545577e-11        1e-09 
  891000    287.00028 1.6081741e-21 3.7270409e-20 4.6022804e-11        1e-09 
  892000    272.47472 3.413922e-21 3.7271232e-20 6.0235228e-11        1e-09 
  893000    243.38371 7.0279492e-21 3.7270452e-20 6.9944461e-11        1e-09 
  894000    288.05007 1.475397e-21 3.7268077e-20 4.8115768e-11        1e-09 
  895000    178.48116 1.5088567e-20 3.7266374e-20 1.9009452e-10        1e-09 
  896000    240.93563 7.3282559e-21 3.7266564e-20 7.4661783e-11        1e-09 
  897000    239.66624 7.4892934e-21 3.726987e-20 8.5966963e-11        1e-09 
  898000    218.75728 1.0085617e-20 3.7268077e-20 9.9218757e-11        1e-09 
  899000    257.19616 5.3102202e-21 3.7269039e-20 6.8431789e-11        1e-09 
  900000    268.22496 3.9376281e-21 3.7266869e-20 5.6948892e-11        1e-09 
  901000    275.57002 3.0254082e-21 3.7267335e-20 5.7323166e-11        1e-09 
  902000    275.61583 3.0196619e-21 3.7267282e-20 5.4696563e-11        1e-09 
  903000    288.35903 1.4382243e-21 3.7269296e-20 4.5217569e-11        1e-09 
  904000    258.36969 5.1658412e-21 3.7270481e-20 6.6534945e-11        1e-09 
  905000    276.01167 2.9763143e-21 3.7273121e-20 5.3354153e-11        1e-09 
  906000    234.48265 8.1379809e-21 3.7274451e-20 8.3949568e-11        1e-09 
  907000    268.93157 3.8568733e-21 3.7273917e-20 5.7291124e-11        1e-09 
  908000    273.88791 3.2419078e-21 3.7274819e-20 5.7327466e-11        1e-09 
  909000    268.81861 3.8713768e-21 3.7274383e-20 5.7526488e-11        1e-09 
  910000    245.10256 6.8211212e-21 3.7277206e-20 7.086409e-11        1e-09 
  911000    189.86323 1.3689138e-20 3.7281265e-20 1.2003821e-10        1e-09 
  912000    263.18439 4.5772049e-21 3.7280111e-20 6.0475874e-11        1e-09 
  913000     287.6435 1.5380792e-21 3.728024e-20 4.5394427e-11        1e-09 
  914000     230.6522 8.6199393e-21 3.7280444e-20 7.9971972e-11        1e-09 
  915000    207.08677 1.1548015e-20 3.7280314e-20 1.1565774e-10        1e-09 
  916000    238.37541 7.6586408e-21 3.727882e-20 7.1530358e-11        1e-09 
  917000    282.74502 2.1420171e-21  3.72755e-20 5.3498467e-11        1e-09 
  918000     240.4318 7.4006553e-21 3.7276359e-20 8.3604595e-11        1e-09 
  919000    280.17106 2.4625813e-21 3.7276227e-20 5.2645394e-11        1e-09 
  920000    272.85416 3.373784e-21 3.7278243e-20 5.4927183e-11        1e-09 
  921000    239.51907 7.516877e-21 3.7279166e-20 7.6820392e-11        1e-09 
  922000    287.86036 1.5105077e-21 3.7279614e-20 4.5378371e-11        1e-09 
  923000    277.08596 2.8473077e-21 3.7277603e-20 5.1459707e-11        1e-09 
  924000    204.04109 1.1922176e-20 3.7276023e-20 1.1435555e-10        1e-09 
  925000    257.55501 5.2707617e-21 3.727417e-20 6.2915127e-11        1e-09 
  926000    281.39293 2.3095364e-21 3.727501e-20 4.9938193e-11        1e-09 
  927000    277.19811 2.8323121e-21 3.7276544e-20 5.4637226e-11        1e-09 
  928000    232.46518 8.3893846e-21 3.7275167e-20 1.1710236e-10        1e-09 
  929000    278.37752 2.6837847e-21 3.7274568e-20 4.9505013e-11        1e-09 
  930000    236.07945 7.9426434e-21 3.727753e-20 7.7048334e-11        1e-09 
  931000    251.10291 6.0756326e-21 3.7277313e-20 6.6415817e-11        1e-09 
  932000    198.22204 1.2646558e-20 3.7277339e-20 1.0440012e-10        1e-09 
  933000    253.36962 5.7949623e-21 3.7278301e-20 7.1503574e-11        1e-09 
  934000    282.83697 2.1337801e-21 3.7278688e-20 4.9894006e-11        1e-09 
  935000    271.41249 3.5538197e-21 3.7279138e-20 5.9594002e-11        1e-09 
  936000    278.93939 2.6189309e-21 3.7279532e-20 5.1197401e-11        1e-09 
  937000    251.12759 6.0743815e-21 3.7279129e-20 7.241124e-11        1e-09 
  938000    157.67183 1.7686487e-20 3.7278558e-20 2.1843956e-10        1e-09 
  939000    232.10577 8.4331658e-21 3.727429e-20 7.8169621e-11        1e-09 
  940000    271.81844 3.5001436e-21 3.7275905e-20 5.6805678e-11        1e-09 
  941000    266.88264 4.1132633e-21 3.7275709e-20 5.8140314e-11        1e-09 
  942000    269.07098 3.8411253e-21 3.7275491e-20 5.6298771e-11        1e-09 
  943000    249.40895 6.2848684e-21 3.7276059e-20 7.2649971e-11        1e-09 
  944000    264.47284 4.4139949e-21 3.7277003e-20 6.1574518e-11        1e-09 
  945000    276.85008 2.8756519e-21 3.7276638e-20 5.0248364e-11        1e-09 
  946000    285.20927 1.8360991e-21 3.7275785e-20 4.7228602e-11        1e-09 
  947000    294.52579 6.8021675e-22 3.7277561e-20 4.0682423e-11        1e-09 
  948000    252.38319 5.9179074e-21 3.7278673e-20 6.7022119e-11        1e-09 
  949000    262.21567 4.6958577e-21 3.7278392e-20 6.4335753e-11        1e-09 
  950000    251.06099 6.0816503e-21 3.7278121e-20 6.5928443e-11        1e-09 
  951000    211.20779 1.1033099e-20 3.727747e-20 1.0968443e-10        1e-09 
  952000    273.51222 3.2916475e-21 3.7277875e-20 5.5186733e-11        1e-09 
  953000    250.50971 6.1501246e-21 3.7278094e-20 7.0993269e-11        1e-09 
  954000    271.23642 3.5762004e-21 3.7279641e-20 5.8274103e-11        1e-09 
  955000    285.45282 1.8077244e-21 3.7277674e-20 4.8644924e-11        1e-09 
  956000    265.56343 4.2791087e-21 3.7277632e-20 6.036259e-11        1e-09 
  957000    222.88141 9.5804802e-21 3.7275398e-20 8.4687741e-11        1e-09 
  958000    255.58276 5.5176912e-21 3.7276031e-20 6.5191055e-11        1e-09 
  959000    286.25801 1.7075603e-21 3.7277561e-20 5.360562e-11        1e-09 
  960000    288.36988 1.4443362e-21 3.7276755e-20 4.6041842e-11        1e-09 
  961000    260.72693 4.8792448e-21 3.7276792e-20 5.8627119e-11        1e-09 
  962000     266.2761 4.1907485e-21 3.7277826e-20 5.9362157e-11        1e-09 
  963000    287.26586 1.5843925e-21 3.7279627e-20 4.8054978e-11        1e-09 
  964000    268.59835 3.9041152e-21 3.7279753e-20 5.9127878e-11        1e-09 
  965000    288.88607 1.3817218e-21 3.7278282e-20 4.7603641e-11        1e-09 
  966000     280.8378 2.3810365e-21 3.7277531e-20 5.1812785e-11        1e-09 
  967000    270.18138 3.7043703e-21 3.7276713e-20 6.2300176e-11        1e-09 
  968000    275.12855 3.087715e-21 3.7274786e-20 5.3902073e-11        1e-09 
  969000    254.29759 5.6764337e-21 3.727508e-20 6.5916701e-11        1e-09 
  970000    277.16489 2.8350105e-21 3.7275113e-20 4.9745911e-11        1e-09 
  971000    168.89923 1.6287041e-20 3.7274212e-20 1.7615778e-10        1e-09 
  972000    244.92522 6.8399593e-21 3.7274009e-20 8.0411827e-11        1e-09 
  973000    244.37013  6.90896e-21 3.7274035e-20 6.7996245e-11        1e-09 
  974000    287.67355 1.5272881e-21 3.7273183e-20 4.9715204e-11        1e-09 
  975000    260.90982 4.8527004e-21 3.7272972e-20 6.0586754e-11        1e-09 
  976000    254.39694 5.661796e-21 3.7272787e-20 6.4102128e-11        1e-09 
  977000    274.48962 3.1651348e-21 3.7272813e-20 5.3702503e-11        1e-09 
  978000    225.58429 9.241937e-21 3.727271e-20 8.4052642e-11        1e-09 
  979000    230.58858 8.6238874e-21 3.7276487e-20 8.3318539e-11        1e-09 
  980000    219.40785 1.0011487e-20 3.7274786e-20 9.4662868e-11        1e-09 
  981000    260.07585 4.9587658e-21 3.727541e-20 6.1143995e-11        1e-09 
  982000    253.23796 5.8078392e-21 3.7274817e-20 6.7783267e-11        1e-09 
  983000    270.08449 3.7139412e-21 3.7274244e-20 5.9512719e-11        1e-09 
  984000    244.44736 6.9000023e-21 3.7274674e-20 7.5011386e-11        1e-09 
  985000    251.57111 6.0124401e-21 3.7272298e-20 6.5559885e-11        1e-09 
  986000    276.32635 2.9353762e-21 3.7271284e-20 5.510639e-11        1e-09 
  987000    266.45344 4.1594625e-21 3.7268576e-20 5.8744566e-11        1e-09 
  988000    208.55655 1.1355605e-20 3.7270537e-20 1.007469e-10        1e-09 
  989000    248.52545 6.3908324e-21 3.7272241e-20 6.991493e-11        1e-09 
  990000    249.46543 6.2737937e-21 3.7272003e-20 7.3720246e-11        1e-09 
  991000    288.92887 1.3715203e-21 3.7273398e-20 4.3135092e-11        1e-09 
  992000    281.31151 2.3150061e-21 3.7270363e-20 4.9582387e-11        1e-09 
  993000    255.86489 5.4748642e-21 3.7268261e-20 6.2322197e-11        1e-09 
  994000    114.39146 2.3055134e-20 3.7269249e-20 2.5910716e-10        1e-09 
  995000    247.70027 6.4908713e-21 3.7269744e-20 6.9878265e-11        1e-09 
  996000    251.76815 5.9844559e-21 3.7268798e-20 6.9614945e-11        1e-09 
  997000    246.51538 6.6397904e-21 3.7271431e-20 8.0116569e-11        1e-09 
  998000    237.96959 7.6984965e-21 3.7268249e-20 7.7315267e-11        1e-09 
  999000    294.20365 7.1122474e-22 3.7268539e-20 4.2491287e-11        1e-09 
 1000000    264.63745 4.3827222e-21 3.7266185e-20 5.9121273e-11        1e-09 
 1001000    271.19762 3.5692097e-21 3.7267828e-20 5.7589351e-11        1e-09 
 1002000    253.86945 5.7227164e-21 3.7268163e-20 6.8472348e-11        1e-09 
 1003000    196.45322 1.2857153e-20 3.7268142e-20 1.1290927e-10        1e-09 
 1004000    282.11701 2.2110025e-21 3.726645e-20 4.965352e-11        1e-09 
 1005000    272.03891 3.4637421e-21 3.7266899e-20 5.5360832e-11        1e-09 
 1006000    278.27059 2.6882845e-21 3.726578e-20 5.1670945e-11        1e-09 
[...]
 1513000    259.51539 5.0495878e-21 3.729659e-20 6.2624049e-11        1e-09 
 1514000    213.32187 1.0789669e-20 3.7296733e-20 1.4036128e-10        1e-09 
 1515000    224.79123 9.3635562e-21 3.7295785e-20 8.4724347e-11        1e-09 
 1516000    288.24864 1.4794184e-21 3.7296772e-20 4.9522006e-11        1e-09 
 1517000    270.72433 3.6565925e-21 3.7296401e-20 5.6164232e-11        1e-09 
 1518000    281.65009 2.298899e-21 3.7296327e-20 5.009127e-11        1e-09 
 1519000    251.86125 6.0013778e-21 3.7297288e-20 6.7200542e-11        1e-09 
 1520000    257.95655 5.2428172e-21 3.729612e-20 6.3437785e-11        1e-09 
 1521000    227.50931 9.0240407e-21 3.7294015e-20 8.1761135e-11        1e-09 
 1522000    256.58139 5.4115882e-21 3.7294016e-20 6.8157059e-11        1e-09 
 1523000    213.96624 1.0707042e-20 3.7294175e-20 9.011367e-11        1e-09 
 1524000    279.49898 2.5620678e-21 3.7292202e-20 5.4112684e-11        1e-09 
 1525000    280.24051 2.469833e-21 3.7292108e-20 5.080368e-11        1e-09 
 1526000    273.42252 3.3178822e-21 3.7292964e-20  5.42571e-11        1e-09 
 1527000    274.78459 3.1489036e-21 3.7293235e-20 5.4294552e-11        1e-09 
 1528000    289.07564 1.3733799e-21 3.7293495e-20 4.5711493e-11        1e-09 
 1529000    237.91053 7.7302987e-21 3.7292712e-20 8.0359037e-11        1e-09 
 1530000    272.27996 3.4605346e-21 3.7293643e-20 5.9708949e-11        1e-09 
 1531000    266.46948 4.1817682e-21 3.7292875e-20 6.052726e-11        1e-09 
 1532000    257.70761 5.2710014e-21 3.7293371e-20 6.6338744e-11        1e-09 
 1533000    266.99904 4.1161172e-21 3.7293027e-20 5.9630235e-11        1e-09 
 1534000    181.31341 1.4761065e-20 3.7290804e-20 1.1914909e-10        1e-09 
 1535000    202.63247 1.2114125e-20 3.7292939e-20 1.0796176e-10        1e-09 
 1536000    247.54852 6.533172e-21 3.7293189e-20 6.8111998e-11        1e-09 
 1537000    264.41897 4.436596e-21 3.729291e-20 6.1749068e-11        1e-09 
 1538000    275.17705 3.0992712e-21 3.7292368e-20 5.7691611e-11        1e-09 
 1539000    248.77064 6.3807576e-21 3.7292634e-20 7.7035219e-11        1e-09 
 1540000    245.79296 6.7485656e-21 3.7290439e-20 8.5059864e-11        1e-09 
 1541000    278.66296 2.6640772e-21 3.7290329e-20 5.347321e-11        1e-09 
 1542000    224.33723 9.4145987e-21 3.7290415e-20 8.4502192e-11        1e-09 
 1543000    262.67082 4.6521327e-21 3.7291224e-20 5.8934939e-11        1e-09 
 1544000    263.87132 4.5051894e-21 3.7293453e-20 6.300406e-11        1e-09 
 1545000    235.32144 8.054725e-21 3.7295422e-20 8.4054506e-11        1e-09 
 1546000    226.28258 9.1784819e-21 3.7296024e-20 1.0086798e-10        1e-09 
 1547000    258.92038 5.1233935e-21 3.7296461e-20 6.4820049e-11        1e-09 
 1548000    272.46295 3.4403294e-21 3.7296176e-20 5.6969939e-11        1e-09 
 1549000    218.69144 1.0124064e-20 3.7298342e-20 9.5436185e-11        1e-09 
 1550000    275.23819 3.0981059e-21 3.7298801e-20 5.8555835e-11        1e-09 
 1551000    262.01931 4.7407278e-21 3.7298864e-20 5.9323104e-11        1e-09 
 1552000    261.46138 4.8109976e-21 3.7299806e-20 6.3467419e-11        1e-09 
 1553000    257.63432 5.2875357e-21 3.7300799e-20 6.5504391e-11        1e-09 
 1554000    256.72904 5.4007857e-21 3.730156e-20 6.5544191e-11        1e-09 
 1555000    272.49017 3.4403584e-21 3.7299588e-20 5.4207129e-11        1e-09 
 1556000    262.50211 4.682564e-21 3.7300692e-20 6.1195075e-11        1e-09 
 1557000    251.60741 6.0353153e-21 3.7299684e-20 6.8288125e-11        1e-09 
 1558000    278.03232 2.7522377e-21 3.7300126e-20 5.6557661e-11        1e-09 
 1559000    290.98277 1.1435009e-21 3.7300594e-20 4.5340908e-11        1e-09 
 1560000    230.85296 8.6145602e-21 3.7300012e-20 8.5582806e-11        1e-09 
 1561000    187.11456 1.4049354e-20 3.7299936e-20 1.9915296e-10        1e-09 
 1562000    260.72097 4.9010072e-21 3.7297813e-20 5.9828159e-11        1e-09 
 1563000    247.64502 6.5252811e-21 3.7297289e-20 6.6593911e-11        1e-09 
 1564000    289.75064 1.2926695e-21 3.729666e-20 4.9152293e-11        1e-09 
 1565000    279.40111 2.5770222e-21 3.7294996e-20 5.1266277e-11        1e-09 
 1566000    258.96325 5.1164748e-21 3.7294869e-20 6.0532294e-11        1e-09 
 1567000    283.65861 2.0455814e-21 3.7292585e-20 4.928146e-11        1e-09 
 1568000     282.0228 2.2493477e-21 3.7293088e-20 4.7545973e-11        1e-09 
 1569000    246.27518 6.6885812e-21 3.7290375e-20 6.8709984e-11        1e-09 
 1570000    283.78756 2.0273803e-21 3.7290407e-20 4.9448198e-11        1e-09 
 1571000    281.33812 2.3342267e-21 3.729289e-20 4.8781244e-11        1e-09 
 1572000    293.54014 8.1973848e-22 3.7294607e-20 4.272881e-11        1e-09 
 1573000     266.0143 4.2402465e-21 3.7294793e-20 6.4636289e-11        1e-09 
 1574000    282.74997 2.1599649e-21 3.7294062e-20 5.1331683e-11        1e-09 
 1575000    230.80631 8.6150553e-21 3.729471e-20 7.8522499e-11        1e-09 
 1576000     267.3757 4.0708087e-21 3.7294522e-20 5.8373492e-11        1e-09 
 1577000    272.75185 3.4033095e-21 3.7295055e-20 5.382556e-11        1e-09 
 1578000    271.06467 3.614136e-21 3.7296235e-20 5.6055715e-11        1e-09 
 1579000    275.03559 3.1196614e-21 3.7295181e-20 5.5083473e-11        1e-09 
 1580000    259.04332 5.1064021e-21 3.7294746e-20 6.5192535e-11        1e-09 
 1581000    272.03294 3.4936671e-21 3.7296082e-20 5.9626255e-11        1e-09 
 1582000    195.92331 1.2951204e-20 3.7296347e-20 1.1423516e-10        1e-09 
 1583000    283.93103 2.0169742e-21 3.7297828e-20 4.9568678e-11        1e-09 
 1584000    261.81922 4.7656491e-21 3.7298922e-20 6.4858394e-11        1e-09 
 1585000    270.55389 3.6787854e-21 3.7297416e-20 5.7920129e-11        1e-09 
 1586000    248.60776 6.4071004e-21 3.7298736e-20 7.6043958e-11        1e-09 
 1587000    275.17575 3.1042058e-21 3.7297142e-20 5.1649897e-11        1e-09 
 1588000    288.09405 1.4997168e-21 3.7297862e-20 4.8284069e-11        1e-09 
 1589000    259.20518 5.0901724e-21 3.7298628e-20 6.5257347e-11        1e-09 
 1590000    249.58671 6.2860114e-21 3.7299291e-20 7.4148216e-11        1e-09 
 1591000     201.7223 1.2234015e-20 3.7299732e-20 1.083156e-10        1e-09 
 1592000    263.74161 4.5278738e-21 3.730002e-20 6.0067073e-11        1e-09 
 1593000    277.52741 2.814513e-21 3.7299663e-20 5.1357646e-11        1e-09 
 1594000    265.32984 4.330539e-21 3.7300036e-20 6.0720214e-11        1e-09 
 1595000    268.34301 3.9572728e-21 3.7301182e-20 5.8182683e-11        1e-09 
 1596000     285.4486 1.831224e-21 3.7300649e-20 5.0708225e-11        1e-09 
 1597000    220.41592 9.9128393e-21 3.7301399e-20 9.3155142e-11        1e-09 
 1598000    269.52523 3.810673e-21 3.7301484e-20 5.6214919e-11        1e-09 
 1599000    288.92789 1.4004481e-21 3.7302205e-20 4.9490495e-11        1e-09 
 1600000    278.56575 2.6888412e-21 3.7303013e-20 5.3543937e-11        1e-09 
 1601000    247.12991 6.5977624e-21 3.7305763e-20 7.0568076e-11        1e-09 
 1602000    221.45595 9.7895691e-21 3.7307362e-20 1.0027566e-10        1e-09 
 1603000    214.34374 1.0673843e-20 3.7307883e-20 9.9486623e-11        1e-09 
 1604000    246.25995 6.709238e-21 3.7309139e-20 6.7575562e-11        1e-09 
 1605000    241.42467 7.3114528e-21 3.7310529e-20 9.4637017e-11        1e-09 
 1606000    287.54673 1.5799312e-21 3.7310067e-20 4.8635972e-11        1e-09 
 1607000    253.70256 5.7844764e-21 3.7309185e-20 8.0994848e-11        1e-09 
 1608000    264.40111 4.4534866e-21 3.7307582e-20 6.5736599e-11        1e-09 
 1609000    286.42987 1.7161577e-21 3.7307514e-20 4.8947052e-11        1e-09 
 1610000    232.03606 8.4751269e-21 3.7307588e-20 9.1577673e-11        1e-09 
 1611000    270.24802 3.7269712e-21 3.7307595e-20 6.0817231e-11        1e-09 
 1612000    278.04773 2.7568861e-21 3.730669e-20 5.4616755e-11        1e-09 
 1613000    235.43738 8.0513996e-21 3.7306503e-20 8.043394e-11        1e-09 
 1614000    200.41157 1.2403288e-20 3.7306136e-20 1.1632637e-10        1e-09 
 1615000     253.4303 5.8136731e-21 3.7304551e-20 6.8502724e-11        1e-09 
 1616000    248.92082 6.3726423e-21 3.7303179e-20 6.8653049e-11        1e-09 
 1617000    291.63396 1.0636533e-21 3.7301663e-20 4.3424369e-11        1e-09 
 1618000    251.38336 6.0669944e-21 3.7303522e-20 8.2637681e-11        1e-09 
 1619000    279.33398 2.5927481e-21 3.7302379e-20 5.0826837e-11        1e-09 
 1620000    284.25659 1.9816243e-21 3.7302932e-20 5.6142031e-11        1e-09 
 1621000     203.0889 1.2065066e-20 3.7300595e-20 1.0467158e-10        1e-09 
 1622000    295.77004 5.5055237e-22 3.7302504e-20 4.2059421e-11        1e-09 
 1623000    276.52108 2.9413446e-21 3.7301449e-20 5.4114686e-11        1e-09 
 1624000    239.67371 7.5203288e-21 3.7301833e-20 7.3919129e-11        1e-09 
 1625000    200.44381 1.2394959e-20 3.7301813e-20 1.2994477e-10        1e-09 
 1626000    232.17473 8.4540547e-21 3.7303746e-20 9.4622749e-11        1e-09 
 1627000    217.12155 1.0324776e-20 3.7303982e-20 9.2906788e-11        1e-09 
 1628000      239.483 7.5489101e-21 3.7306717e-20 7.5086459e-11        1e-09 
 1629000    282.24825 2.2366622e-21 3.7308417e-20 4.914349e-11        1e-09 
 1630000    194.21776 1.3175964e-20 3.7309179e-20 1.2909493e-10        1e-09 
 1631000    271.46624 3.5777632e-21 3.730976e-20 5.6077841e-11        1e-09 
 1632000    266.53672 4.1906778e-21 3.7310141e-20 5.9747914e-11        1e-09 
 1633000    243.07799 7.1071032e-21 3.7311619e-20 8.4692213e-11        1e-09 
 1634000    272.07723 3.505532e-21 3.731345e-20 5.3061524e-11        1e-09 
 1635000    242.10029 7.2301748e-21 3.7313203e-20 7.904024e-11        1e-09 
 1636000    192.53636 1.3387554e-20 3.731184e-20 1.4250812e-10        1e-09 
 1637000    215.35694 1.0552373e-20 3.7312311e-20 8.7874719e-11        1e-09 
 1638000    272.91413 3.3983429e-21 3.7310253e-20 5.6256479e-11        1e-09 
 1639000    269.06632 3.876462e-21 3.7310249e-20 5.8927221e-11        1e-09 
 1640000    267.96656 4.0128828e-21 3.7310015e-20 5.5103787e-11        1e-09 
 1641000    280.03533 2.5127189e-21  3.73095e-20 5.1223637e-11        1e-09 
 1642000    287.40205 1.5968338e-21 3.7308991e-20 4.7011251e-11        1e-09 
 1643000    269.74539 3.790906e-21 3.7309074e-20 5.4935534e-11        1e-09 
 1644000    204.75033 1.1866366e-20 3.7308343e-20 1.0301155e-10        1e-09 
 1645000    248.63557 6.4115686e-21 3.730666e-20 7.0341398e-11        1e-09 
 1646000    261.87611 4.7652905e-21 3.7305633e-20 6.1546227e-11        1e-09 
 1647000    222.81058 9.6175312e-21 3.7303648e-20 8.8230188e-11        1e-09 
 1648000    277.16862 2.8644591e-21 3.7305026e-20 5.2613817e-11        1e-09 
 1649000    247.54295 6.5442951e-21 3.730362e-20 7.462041e-11        1e-09 
 1650000    223.92714 9.4791225e-21 3.7303981e-20 1.0194665e-10        1e-09 
 1651000    198.07188 1.2694132e-20 3.7306253e-20 1.1137928e-10        1e-09 
 1652000    289.23653 1.3673836e-21 3.7307491e-20 4.9257899e-11        1e-09 
 1653000    219.04084 1.0087849e-20 3.7305543e-20 1.1859059e-10        1e-09 
 1654000    184.46345 1.4385864e-20 3.7307022e-20 1.1113233e-10        1e-09 
 1655000    279.95156 2.5222739e-21 3.7308645e-20 5.340975e-11        1e-09 
 1656000    260.70761 4.9124109e-21 3.7307557e-20 6.3220599e-11        1e-09 
 1657000    258.45558 5.1924627e-21 3.7307775e-20 6.5519369e-11        1e-09 
 1658000    222.71107 9.6355513e-21 3.7309303e-20 9.0146164e-11        1e-09 
 1659000    255.23742 5.5939466e-21 3.7309375e-20 7.2685575e-11        1e-09 
 1660000    249.70207 6.279432e-21 3.7307045e-20 7.3618212e-11        1e-09 
 1661000    281.92994 2.2734029e-21 3.7305605e-20 5.1717105e-11        1e-09 
 1662000    259.62292 5.0453519e-21 3.7305716e-20 6.4842624e-11        1e-09 
 1663000    269.41223 3.8303691e-21 3.7307138e-20 5.9074149e-11        1e-09 
 1664000    238.48945 7.675678e-21 3.7310028e-20 9.2562357e-11        1e-09 
 1665000    224.82183 9.3777759e-21 3.7313808e-20 9.5246793e-11        1e-09 
 1666000     251.0494 6.118337e-21 3.7313368e-20 6.6662665e-11        1e-09 
 1667000    226.38613 9.1846648e-21 3.7315073e-20 1.0311183e-10        1e-09 
 1668000    278.58045 2.6996335e-21 3.7315632e-20 5.1400881e-11        1e-09 
 1669000    279.03999 2.6427161e-21 3.7315816e-20 4.8773441e-11        1e-09 
 1670000    281.24376 2.366646e-21 3.7313584e-20 4.9691208e-11        1e-09 
 1671000    277.69735 2.8063022e-21 3.7312568e-20 5.0386081e-11        1e-09 
 1672000    240.11003 7.4775174e-21 3.7313239e-20 7.333747e-11        1e-09 
 1673000    228.15278 8.962111e-21 3.7312041e-20 8.3294692e-11        1e-09 
 1674000    227.44625 9.0498325e-21 3.7311971e-20 1.0539652e-10        1e-09 
 1675000    220.98413 9.8525501e-21 3.7311714e-20  1.14461e-10        1e-09 
 1676000    246.03181 6.739522e-21 3.7311074e-20 7.1291271e-11        1e-09 
 1677000     280.3342 2.4771061e-21 3.7311023e-20 5.2380909e-11        1e-09 
 1678000    216.70642 1.038521e-20 3.7312833e-20 1.1939117e-10        1e-09 
 1679000    286.86984 1.6673896e-21 3.7313415e-20 4.9682084e-11        1e-09 
 1680000    216.58474 1.0399173e-20 3.7311676e-20 9.026934e-11        1e-09 
 1681000    246.99035 6.6205008e-21 3.731116e-20 8.1905828e-11        1e-09 
 1682000    210.97125 1.1098868e-20 3.7313847e-20 1.2037012e-10        1e-09 
 1683000    292.80807 9.2847413e-22 3.7312376e-20 4.6631789e-11        1e-09 
 1684000    274.07553 3.2540745e-21 3.7310299e-20 5.6752678e-11        1e-09 
 1685000    264.36138 4.4631807e-21 3.7312339e-20 6.2001626e-11        1e-09 
 1686000    232.44021 8.4298998e-21 3.731258e-20 7.9805156e-11        1e-09 
 1687000    239.92006 7.4996191e-21 3.7311734e-20 8.9336275e-11        1e-09 
 1688000    284.06884 2.0128648e-21 3.7310843e-20 5.1164653e-11        1e-09 
 1689000    270.81041 3.660397e-21 3.7310902e-20 5.7957538e-11        1e-09 
 1690000    272.11945 3.4983414e-21 3.7311506e-20 6.0606084e-11        1e-09 
 1691000    268.69859 3.922689e-21 3.7310782e-20 5.6725709e-11        1e-09 
 1692000    253.80615 5.7734858e-21 3.7311067e-20 7.4679399e-11        1e-09 
 1693000    253.23795  5.84432e-21 3.7311297e-20 6.7306865e-11        1e-09 
 1694000    250.51398 6.1838881e-21 3.7312388e-20 7.0098575e-11        1e-09 
 1695000    286.28793 1.7381958e-21 3.7311915e-20 4.7107257e-11        1e-09 
 1696000    244.12259 6.9778781e-21 3.7312194e-20 8.1603214e-11        1e-09 
 1697000    190.09455 1.368653e-20 3.7307401e-20 1.1981989e-10        1e-09 
 1698000    265.90727 4.2666728e-21 3.7307921e-20 6.0614675e-11        1e-09 
 1699000    230.07573 8.7174561e-21 3.7306329e-20 1.1047479e-10        1e-09 
 1700000    257.39094 5.3222795e-21  3.73053e-20 6.3565269e-11        1e-09 
 1701000    264.52854 4.4338432e-21 3.7303773e-20 6.1422831e-11        1e-09 
 1702000    284.83344 1.9074149e-21 3.7300401e-20 4.9014571e-11        1e-09 
 1703000    294.24786 7.3811347e-22 3.7300922e-20 4.2481335e-11        1e-09 
 1704000    252.80359 5.8887739e-21 3.7301778e-20 6.8478754e-11        1e-09 
 1705000    278.42951 2.7036906e-21 3.7300934e-20 5.1263871e-11        1e-09 
 1706000    280.71739 2.4182307e-21 3.7299763e-20 4.9997351e-11        1e-09 
 1707000    241.78648 7.2566357e-21 3.7300669e-20 8.0148788e-11        1e-09 
 1708000    224.51021 9.4026389e-21 3.7299949e-20 8.3522744e-11        1e-09 
 1709000    264.28627 4.461141e-21 3.7300966e-20 6.1960883e-11        1e-09 
 1710000    258.55364 5.1756899e-21 3.7303187e-20 6.1683722e-11        1e-09 
 1711000    249.18875 6.3404349e-21 3.7304264e-20 6.7183847e-11        1e-09 
 1712000    272.45756  3.44921e-21 3.7304387e-20 5.7845136e-11        1e-09 
 1713000    260.36295 4.9513023e-21 3.7303621e-20 6.3054798e-11        1e-09 
 1714000    284.11626  2.00115e-21 3.730502e-20 5.1628208e-11        1e-09 
 1715000    285.81583 1.7887783e-21 3.7303835e-20 4.8730473e-11        1e-09 
 1716000    205.91555 1.1715303e-20 3.7302067e-20 9.8550943e-11        1e-09 
 1717000    246.95756 6.615047e-21 3.7301632e-20 7.3291185e-11        1e-09 
 1718000    259.99612  4.99466e-21 3.7301397e-20 6.8187729e-11        1e-09 
 1719000    254.59863 5.6661482e-21 3.7302201e-20 6.6684219e-11        1e-09 
 1720000    294.24495 7.3928179e-22 3.7301729e-20 4.4362406e-11        1e-09 
 1721000    272.29199 3.4660477e-21 3.7300652e-20 5.525824e-11        1e-09 
 1722000    238.45345 7.6683715e-21 3.7298248e-20 9.1603914e-11        1e-09 
 1723000    228.78469 8.8703876e-21 3.7298838e-20 8.1509482e-11        1e-09 
 1724000    248.53071 6.4189588e-21 3.730102e-20 6.7903835e-11        1e-09 
 1725000    279.85614 2.5273136e-21 3.7301827e-20 5.1234051e-11        1e-09 
 1726000     288.4291 1.4634707e-21 3.7303249e-20 4.6191815e-11        1e-09 
 1727000    252.57322 5.9187464e-21 3.7303124e-20 6.8076566e-11        1e-09 
 1728000    240.76438 7.3883122e-21 3.7305341e-20 7.1365026e-11        1e-09 
 1729000    298.62746 1.9786732e-22 3.7304879e-20 3.9518078e-11        1e-09 
 1730000    265.00678 4.3757566e-21 3.7305111e-20 5.9510089e-11        1e-09 
 1731000    265.45549 4.3194342e-21 3.7304545e-20 6.4528516e-11        1e-09 
 1732000    271.42953 3.575331e-21 3.7302767e-20 6.0292589e-11        1e-09 
 1733000    266.04335 4.2453955e-21 3.7303552e-20 6.1641669e-11        1e-09 
 1734000    207.47943 1.1522318e-20 3.7303408e-20 1.1024798e-10        1e-09 
 1735000    201.68644 1.2240636e-20 3.7301898e-20 1.4495116e-10        1e-09 
 1736000    230.81123 8.6222525e-21 3.7302518e-20 8.8034227e-11        1e-09 
 1737000    264.89904 4.3865304e-21 3.7302498e-20 6.5290955e-11        1e-09 
 1738000    251.19422 6.0906017e-21 3.7303628e-20 6.970692e-11        1e-09 
 1739000    275.96301 3.012329e-21 3.7303089e-20 5.4583414e-11        1e-09 
 1740000    261.43233 4.8174564e-21 3.7302655e-20 6.2617111e-11        1e-09 
 1741000    279.49425 2.574923e-21 3.730447e-20 5.0031776e-11        1e-09 
 1742000    261.68008 4.7875043e-21 3.7303488e-20 6.5500772e-11        1e-09 
 1743000    245.99575   6.7361e-21 3.7303172e-20 7.408032e-11        1e-09 
 1744000    226.62448 9.1438623e-21 3.7303888e-20 8.4980731e-11        1e-09 
 1745000    227.84693 8.9887537e-21 3.730068e-20 8.4355095e-11        1e-09 
 1746000    228.38913 8.9200598e-21 3.7299358e-20 8.5355207e-11        1e-09 
 1747000    264.94213 4.3758039e-21 3.7297125e-20 5.7393422e-11        1e-09 
 1748000    298.42039 2.1754589e-22 3.7298827e-20 3.9552239e-11        1e-09 
 1749000    270.65903 3.6686024e-21 3.7300297e-20 5.3384259e-11        1e-09 
 1750000    261.98659 4.7456849e-21 3.7299755e-20 6.6198128e-11        1e-09 
 1751000    238.86264 7.6202725e-21 3.7300995e-20 7.7592077e-11        1e-09 
 1752000    259.65846 5.036748e-21 3.7301527e-20 6.7051412e-11        1e-09 
 1753000    271.43358 3.5747649e-21 3.7302705e-20 5.4864256e-11        1e-09 
 1754000     278.0627 2.7502878e-21 3.7301952e-20 5.2587716e-11        1e-09 
 1755000    231.12353 8.5857078e-21 3.730478e-20 1.0004497e-10        1e-09 
 1756000    189.71193 1.3731022e-20 3.7304349e-20 1.8647192e-10        1e-09 
 1757000    245.90183  6.74894e-21 3.7304341e-20 6.8843236e-11        1e-09 
 1758000    284.70559 1.9264903e-21 3.730359e-20 4.755497e-11        1e-09 
 1759000    258.58308 5.172563e-21 3.7303717e-20 6.2763943e-11        1e-09 
 1760000    269.20764 3.8535417e-21 3.7304889e-20 5.5043216e-11        1e-09 
 1761000    223.49386 9.5326233e-21 3.7303643e-20 8.6391698e-11        1e-09 
 1762000    245.67118 6.7753327e-21 3.7302074e-20 7.128153e-11        1e-09 
 1763000    248.16149 6.4651025e-21 3.7301286e-20 8.1310339e-11        1e-09 
 1764000    275.61477 3.0523205e-21 3.7299809e-20 5.599869e-11        1e-09 
 1765000    263.13013 4.6042741e-21 3.7300438e-20 5.9540962e-11        1e-09 
 1766000    261.25135 4.8349088e-21 3.7297619e-20 6.4390389e-11        1e-09 
 1767000    267.19286  4.09577e-21 3.7296763e-20 5.8146391e-11        1e-09 
 1768000    274.02334 3.2465798e-21 3.7296318e-20 5.5578601e-11        1e-09 
 1769000    268.40982 3.9451351e-21 3.7297347e-20 5.6987232e-11        1e-09 
 1770000   