ITEM: TIMESTEP
0
ITEM: NUMBER OF ATOMS
16
ITEM: BOX BOUNDS pp pp pp
0 0.04
0 0.04
-5e-06 5e-06
ITEM: ATOMS id type xs ys zs
1 1 0 0 0.5
2 1 0.25 0 0.5
3 1 0.5 0 0.5
4 1 0.75 0 0.5
5 1 0 0.25 0.5
6 1 0.25 0.25 0.5
7 1 0.5 0.25 0.5
8 1 0.75 0.25 0.5
9 1 0 0.5 0.5
10 1 0.25 0.5 0.5
11 1 0.5 0.5 0.5
12 1 0.75 0.5 0.5
13 1 0 0.75 0.5
14 1 0.25 0.75 0.5
15 1 0.5 0.75 0.5
16 1 0.75 0.75 0.5
ITEM: TIMESTEP
1
ITEM: NUMBER OF ATOMS
16
ITEM: BOX BOUNDS pp pp pp
-9.96119e-07 0.040001
-9.96119e-07 0.040001
-5e-06 5e-06
ITEM: ATOMS id type xs ys zs
1 1 -1.16991e-18 -6.33655e-18 0.5
2 1 0.25 3.92792e-18 0.5
3 1 0.5 4.66904e-18 0.5
4 1 0.75 -8.90399e-18 0.5
5 1 1.33401e-18 0.25 0.5
6 1 0.25 0.25 0.5
7 1 0.5 0.25 0.5
8 1 0.75 0.25 0.5
9 1 5.85482e-18 0.5 0.5
10 1 0.25 0.5 0.5
11 1 0.5 0.5 0.5
12 1 0.75 0.5 0.5
13 1 3.05446e-18 0.75 0.5
14 1 0.25 0.75 0.5
15 1 0.5 0.75 0.5
16 1 0.75 0.75 0.5
ITEM: TIMESTEP
2
ITEM: NUMBER OF ATOMS
16
ITEM: BOX BOUNDS pp pp pp
-3.98476e-06 0.040004
-3.98476e-06 0.040004
-5e-06 5e-06
ITEM: ATOMS id type xs ys zs
1 1 -2.35005e-18 -1.26818e-17 0.5
2 1 0.25 7.85467e-18 0.5
3 1 0.5 9.33668e-18 0.5
4 1 0.75 -1.78053e-17 0.5
5 1 2.66762e-18 0.25 0.5
6 1 0.25 0.25 0.5
7 1 0.5 0.25 0.5
8 1 0.75 0.25 0.5
9 1 1.17079e-17 0.5 0.5
10 1 0.25 0.5 0.5
11 1 0.5 0.5 0.5
12 1 0.75 0.5 0.5
13 1 6.11859e-18 0.75 0.5
14 1 0.25 0.75 0.5
15 1 0.5 0.75 0.5
16 1 0.75 0.75 0.5
ITEM: TIMESTEP
3
ITEM: NUMBER OF ATOMS
16
ITEM: BOX BOUNDS pp pp pp
-8.96679e-06 0.040009
-8.96679e-06 0.040009
-5e-06 5e-06
ITEM: ATOMS id type xs ys zs
1 1 -3.51361e-18 -1.90074e-17 0.5
2 1 0.25 1.17685e-17 0.5
3 1 0.5 1.40121e-17 0.5
4 1 0.75 -2.67119e-17 0.5
5 1 4.0216e-18 0.25 0.5
6 1 0.25 0.25 0.5
7 1 0.5 0.25 0.5
8 1 0.75 0.25 0.5
9 1 1.75681e-17 0.5 0.5
10 1 0.25 0.5 0.5
11 1 0.5 0.5 0.5
12 1 0.75 0.5 0.5
13 1 9.18619e-18 0.75 0.5
14 1 0.25 0.75 0.5
15 1 0.5 0.75 0.5
16 1 0.75 0.75 0.5
ITEM: TIMESTEP
4
ITEM: NUMBER OF ATOMS
16
ITEM: BOX BOUNDS pp pp pp
-1.59436e-05 0.0400159
-1.59436e-05 0.0400159
-5e-06 5e-06
ITEM: ATOMS id type xs ys zs
1 1 -4.73961e-18 -2.53061e-17 0.5
2 1 0.25 1.57423e-17 0.5
3 1 0.5 1.87045e-17 0.5
4 1 0.75 -3.56317e-17 0.5
5 1 5.33206e-18 0.25 0.5
6 1 0.25 0.25 0.5
7 1 0.5 0.25 0.5
8 1 0.75 0.25 0.5
9 1 2.34441e-17 0.5 0.5
10 1 0.25 0.5 0.5
11 1 0.5 0.5 0.5
12 1 0.75 0.5 0.5
13 1 1.22722e-17 0.75 0.5
14 1 0.25 0.75 0.5
15 1 0.5 0.75 0.5
16 1 0.75 0.75 0.5
ITEM: TIMESTEP
5
ITEM: NUMBER OF ATOMS
16
ITEM: BOX BOUNDS pp pp pp
-2.49174e-05 0.0400249
-2.49174e-05 0.0400249
-5e-06 5e-06
ITEM: ATOMS id type xs ys zs
1 1 -5.92185e-18 -3.16396e-17 0.5
2 1 0.25 1.96267e-17 0.5
3 1 0.5 2.3349e-17 0.5
4 1 0.75 -4.44985e-17 0.5
5 1 6.68323e-18 0.25 0.5
6 1 0.25 0.25 0.5
7 1 0.5 0.25 0.5
8 1 0.75 0.25 0.5
9 1 2.92709e-17 0.5 0.5
10 1 0.25 0.5 0.5
11 1 0.5 0.5 0.5
12 1 0.75 0.5 0.5
13 1 1.53122e-17 0.75 0.5
14 1 0.25 0.75 0.5
15 1 0.5 0.75 0.5
16 1 0.75 0.75 0.5
ITEM: TIMESTEP
6
ITEM: NUMBER OF ATOMS
16
ITEM: BOX BOUNDS pp pp pp
-3.58906e-05 0.0400359
-3.58906e-05 0.0400359
-5e-06 5e-06
ITEM: ATOMS id type xs ys zs
1 1 -7.10233e-18 -3.80482e-17 0.5
2 1 0.25 2.35053e-17 0.5
3 1 0.5 2.80711e-17 0.5
4 1 0.75 -5.34366e-17 0.5
5 1 8.11695e-18 0.25 0.5
6 1 0.25 0.25 0.5
7 1 0.5 0.25 0.5
8 1 0.75 0.25 0.5
9 1 3.51735e-17 0.5 0.5
10 1 0.25 0.5 0.5
11 1 0.5 0.5 0.5
12 1 0.75 0.5 0.5
13 1 1.84322e-17 0.75 0.5
14 1 0.25 0.75 0.5
15 1 0.5 0.75 0.5
16 1 0.75 0.75 0.5
ITEM: TIMESTEP
7
ITEM: NUMBER OF ATOMS
16
ITEM: BOX BOUNDS pp pp pp
-4.88666e-05 0.0400489
-4.88666e-05 0.0400489
-5e-06 5e-06
ITEM: ATOMS id type xs ys zs
1 1 -8.28069e-18 -4.42763e-17 0.5
2 1 0.25 2.7377e-17 0.5
3 1 0.5 3.26158e-17 0.5
4 1 0.75 -6.21897e-17 0.5
5 1 9.46365e-18 0.25 0.5
6 1 0.25 0.25 0.5
7 1 0.5 0.25 0.5
8 1 0.75 0.25 0.5
9 1 4.08965e-17 0.5 0.5
10 1 0.25 0.5 0.5
11 1 0.5 0.5 0.5
12 1 0.75 0.5 0.5
13 1 2.14622e-17 0.75 0.5
14 1 0.25 0.75 0.5
15 1 0.5 0.75 0.5
16 1 0.75 0.75 0.5
ITEM: TIMESTEP
8
ITEM: NUMBER OF ATOMS
16
ITEM: BOX BOUNDS pp pp pp
-6.38494e-05 0.0400638
-6.38494e-05 0.0400638
-5e-06 5e-06
ITEM: ATOMS id type xs ys zs
1 1 -9.45658e-18 -5.06602e-17 0.5
2 1 0.25 3.14094e-17 0.5
3 1 0.5 3.71508e-17 0.5
4 1 0.75 -7.09243e-17 0.5
5 1 1.08075e-17 0.25 0.5
6 1 0.25 0.25 0.5
7 1 0.5 0.25 0.5
8 1 0.75 0.25 0.5
9 1 4.66074e-17 0.5 0.5
10 1 0.25 0.5 0.5
11 1 0.5 0.5 0.5
12 1 0.75 0.5 0.5
13 1 2.46547e-17 0.75 0.5
14 1 0.25 0.75 0.5
15 1 0.5 0.75 0.5
16 1 0.75 0.75 0.5
ITEM: TIMESTEP
9
ITEM: NUMBER OF ATOMS
16
ITEM: BOX BOUNDS pp pp pp
-8.08435e-05 0.0400808
-8.08435e-05 0.0400808
-5e-06 5e-06
ITEM: ATOMS id type xs ys zs
1 1 -1.04609e-17 -5.70289e-17 0.5
2 1 0.25 3.54322e-17 0.5
3 1 0.5 4.18437e-17 0.5
4 1 0.75 -7.9638e-17 0.5
5 1 1.21482e-17 0.25 0.5
6 1 0.25 0.25 0.5
7 1 0.5 0.25 0.5
8 1 0.75 0.25 0.5
9 1 5.23046e-17 0.5 0.5
10 1 0.25 0.5 0.5
11 1 0.5 0.5 0.5
12 1 0.75 0.5 0.5
13 1 2.76708e-17 0.75 0.5
14 1 0.25 0.75 0.5
15 1 0.5 0.75 0.5
16 1 0.75 0.75 0.5
ITEM: TIMESTEP
10
ITEM: NUMBER OF ATOMS
16
ITEM: BOX BOUNDS pp pp pp
-9.98543e-05 0.0400999
-9.98543e-05 0.0400999
-5e-06 5e-06
ITEM: ATOMS id type xs ys zs
1 1 -1.14624e-17 -6.33804e-17 0.5
2 1 0.25 3.94442e-17 0.5
3 1 0.5 4.65239e-17 0.5
4 1 0.75 -8.83281e-17 0.5
5 1 1.34852e-17 0.25 0.5
6 1 0.25 0.25 0.5
7 1 0.5 0.25 0.5
8 1 0.75 0.25 0.5
9 1 5.79864e-17 0.5 0.5
10 1 0.25 0.5 0.5
11 1 0.5 0.5 0.5
12 1 0.75 0.5 0.5
13 1 3.06788e-17 0.75 0.5
14 1 0.25 0.75 0.5
15 1 0.5 0.75 0.5
16 1 0.75 0.75 0.5
ITEM: TIMESTEP
11
ITEM: NUMBER OF ATOMS
16
ITEM: BOX BOUNDS pp pp pp
-0.000120888 0.0401209
-0.000120888 0.0401209
-5e-06 5e-06
ITEM: ATOMS id type xs ys zs
1 1 -1.24608e-17 -6.9713e-17 0.5
2 1 0.25 4.34443e-17 0.5
3 1 0.5 5.11902e-17 0.5
4 1 0.75 -9.69919e-17 0.5
5 1 1.48182e-17 0.25 0.5
6 1 0.25 0.25 0.5
7 1 0.5 0.25 0.5
8 1 0.75 0.25 0.5
9 1 6.3651e-17 0.5 0.5
10 1 0.25 0.5 0.5
11 1 0.5 0.5 0.5
12 1 0.75 0.5 0.5
13 1 3.36778e-17 0.75 0.5
14 1 0.25 0.75 0.5
15 1 0.5 0.75 0.5
16 1 0.75 0.75 0.5
ITEM: TIMESTEP
12
ITEM: NUMBER OF ATOMS
16
ITEM: BOX BOUNDS pp pp pp
-0.000143952 0.040144
-0.000143952 0.040144
-5e-06 5e-06
ITEM: ATOMS id type xs ys zs
1 1 -1.41285e-17 -7.60246e-17 0.5
2 1 0.25 4.77677e-17 0.5
3 1 0.5 5.58411e-17 0.5
4 1 0.75 -1.05627e-16 0.5
5 1 1.61468e-17 0.25 0.5
6 1 0.25 0.25 0.5
7 1 0.5 0.25 0.5
8 1 0.75 0.25 0.5
9 1 6.99695e-17 0.5 0.5
10 1 0.25 0.5 0.5
11 1 0.5 0.5 0.5
12 1 0.75 0.5 0.5
13 1 3.63303e-17 0.75 0.5
14 1 0.25 0.75 0.5
15 1 0.5 0.75 0.5
16 1 0.75 0.75 0.5
ITEM: TIMESTEP
13
ITEM: NUMBER OF ATOMS
16
ITEM: BOX BOUNDS pp pp pp
-0.000169054 0.0401691
-0.000169054 0.0401691
-5e-06 5e-06
ITEM: ATOMS id type xs ys zs
1 1 -1.54548e-17 -8.19775e-17 0.5
2 1 0.25 5.17399e-17 0.5
3 1 0.5 6.04752e-17 0.5
4 1 0.75 -1.14231e-16 0.5
5 1 1.74706e-17 0.25 0.5
6 1 0.25 0.25 0.5
7 1 0.5 0.25 0.5
8 1 0.75 0.25 0.5
9 1 7.593e-17 0.5 0.5
10 1 0.25 0.5 0.5
11 1 0.5 0.5 0.5
12 1 0.75 0.5 0.5
13 1 3.89729e-17 0.75 0.5
14 1 0.25 0.75 0.5
15 1 0.5 0.75 0.5
16 1 0.75 0.75 0.5
ITEM: TIMESTEP
14
ITEM: NUMBER OF ATOMS
16
ITEM: BOX BOUNDS pp pp pp
-0.000196203 0.0401962
-0.000196203 0.0401962
-5e-06 5e-06
ITEM: ATOMS id type xs ys zs
1 1 0 1 0.5
2 1 0.25 5.56966e-17 0.5
3 1 0.5 6.50912e-17 0.5
4 1 0.75 1 0.5
5 1 1.87892e-17 0.25 0.5
6 1 0.25 0.25 0.5
7 1 0.5 0.25 0.5
8 1 0.75 0.25 0.5
9 1 8.18673e-17 0.5 0.5
10 1 0.25 0.5 0.5
11 1 0.5 0.5 0.5
12 1 0.75 0.5 0.5
13 1 4.16047e-17 0.75 0.5
14 1 0.25 0.75 0.5
15 1 0.5 0.75 0.5
16 1 0.75 0.75 0.5
ITEM: TIMESTEP
15
ITEM: NUMBER OF ATOMS
16
ITEM: BOX BOUNDS pp pp pp
-0.000225411 0.0402254
-0.000225411 0.0402254
-5e-06 5e-06
ITEM: ATOMS id type xs ys zs
1 1 -1.34015e-18 1 0.5
2 1 0.25 5.96366e-17 0.5
3 1 0.5 6.96877e-17 0.5
4 1 0.75 1 0.5
5 1 2.01022e-17 0.25 0.5
6 1 0.25 0.25 0.5
7 1 0.5 0.25 0.5
8 1 0.75 0.25 0.5
9 1 8.77797e-17 0.5 0.5
10 1 0.25 0.5 0.5
11 1 0.5 0.5 0.5
12 1 0.75 0.5 0.5
13 1 4.42249e-17 0.75 0.5
14 1 0.25 0.75 0.5
15 1 0.5 0.75 0.5
16 1 0.75 0.75 0.5
ITEM: TIMESTEP
16
ITEM: NUMBER OF ATOMS
16
ITEM: BOX BOUNDS pp pp pp
-0.000256689 0.0402567
-0.000256689 0.0402567
-5e-06 5e-06
ITEM: ATOMS id type xs ys zs
1 1 -2.67616e-18 1 0.5
2 1 0.25 6.42278e-17 0.5
3 1 0.5 7.49324e-17 0.5
4 1 0.75 1 0.5
5 1 2.14093e-17 0.25 0.5
6 1 0.25 0.25 0.5
7 1 0.5 0.25 0.5
8 1 0.75 0.25 0.5
9 1 9.36655e-17 0.5 0.5
10 1 0.25 0.5 0.5
11 1 0.5 0.5 0.5
12 1 0.75 0.5 0.5
13 1 4.68328e-17 0.75 0.5
14 1 0.25 0.75 0.5
15 1 0.5 0.75 0.5
16 1 0.75 0.75 0.5
ITEM: TIMESTEP
17
ITEM: NUMBER OF ATOMS
16
ITEM: BOX BOUNDS pp pp pp
-0.000290052 0.0402901
-0.000290052 0.0402901
-5e-06 5e-06
ITEM: ATOMS id type xs ys zs
1 1 -4.00764e-18 1 0.5
2 1 0.25 6.81298e-17 0.5
3 1 0.5 7.88169e-17 0.5
4 1 0.75 1 0.5
5 1 2.27099e-17 0.25 0.5
6 1 0.25 0.25 0.5
7 1 0.5 0.25 0.5
8 1 0.75 0.25 0.5
9 1 9.8855e-17 0.5 0.5
10 1 0.25 0.5 0.5
11 1 0.5 0.5 0.5
12 1 0.75 0.5 0.5
13 1 4.94275e-17 0.75 0.5
14 1 0.25 0.75 0.5
15 1 0.5 0.75 0.5
16 1 0.75 0.75 0.5
ITEM: TIMESTEP
18
ITEM: NUMBER OF ATOMS
16
ITEM: BOX BOUNDS pp pp pp
-0.000325517 0.0403255
-0.000325517 0.0403255
-5e-06 5e-06
ITEM: ATOMS id type xs ys zs
1 1 -5.33419e-18 1 0.5
2 1 0.25 7.20116e-17 0.5
3 1 0.5 8.268e-17 0.5
4 1 0.75 1 0.5
5 1 2.40039e-17 0.25 0.5
6 1 0.25 0.25 0.5
7 1 0.5 0.25 0.5
8 1 0.75 0.25 0.5
9 1 1.04017e-16 0.5 0.5
10 1 0.25 0.5 0.5
11 1 0.5 0.5 0.5
12 1 0.75 0.5 0.5
13 1 5.20084e-17 0.75 0.5
14 1 0.25 0.75 0.5
15 1 0.5 0.75 0.5
16 1 0.75 0.75 0.5
ITEM: TIMESTEP
19
ITEM: NUMBER OF ATOMS
16
ITEM: BOX BOUNDS pp pp pp
-0.000363102 0.0403631
-0.000363102 0.0403631
-5e-06 5e-06
ITEM: ATOMS id type xs ys zs
1 1 -6.65543e-18 1 0.5
2 1 0.25 7.58719e-17 0.5
3 1 0.5 8.65206e-17 0.5
4 1 0.75 1 0.5
5 1 2.52906e-17 0.25 0.5
6 1 0.25 0.25 0.5
7 1 0.5 0.25 0.5
8 1 0.75 0.25 0.5
9 1 1.09149e-16 0.5 0.5
10 1 0.25 0.5 0.5
11 1 0.5 0.5 0.5
12 1 0.75 0.5 0.5
13 1 5.45746e-17 0.75 0.5
14 1 0.25 0.75 0.5
15 1 0.5 0.75 0.5
16 1 0.75 0.75 0.5
ITEM: TIMESTEP
20
ITEM: NUMBER OF ATOMS
16
ITEM: BOX BOUNDS pp pp pp
-0.000402829 0.0404028
-0.000402829 0.0404028
-5e-06 5e-06
ITEM: ATOMS id type xs ys zs
1 1 -7.97097e-18 1 0.5
2 1 0.25 7.97097e-17 0.5
3 1 0.5 9.03377e-17 0.5
4 1 0.75 1 0.5
5 1 2.65699e-17 0.25 0.5
6 1 0.25 0.25 0.5
7 1 0.5 0.25 0.5
8 1 0.75 0.25 0.5
9 1 1.14251e-16 0.5 0.5
10 1 0.25 0.5 0.5
11 1 0.5 0.5 0.5
12 1 0.75 0.5 0.5
13 1 5.71253e-17 0.75 0.5
14 1 0.25 0.75 0.5
15 1 0.5 0.75 0.5
16 1 0.75 0.75 0.5
ITEM: TIMESTEP
21
ITEM: NUMBER OF ATOMS
16
ITEM: BOX BOUNDS pp pp pp
-0.000444723 0.0404447
-0.000444723 0.0404447
-5e-06 5e-06
ITEM: ATOMS id type xs ys zs
1 1 -9.28041e-18 1 0.5
2 1 0.25 8.35237e-17 0.5
3 1 0.5 9.41299e-17 0.5
4 1 0.75 1 0.5
5 1 2.78412e-17 0.25 0.5
6 1 0.25 0.25 0.5
7 1 0.5 0.25 0.5
8 1 0.75 0.25 0.5
9 1 1.1932e-16 0.5 0.5
10 1 0.25 0.5 0.5
11 1 0.5 0.5 0.5
12 1 0.75 0.5 0.5
13 1 5.96598e-17 0.75 0.5
14 1 0.25 0.75 0.5
15 1 0.5 0.75 0.5
16 1 0.75 0.75 0.5
ITEM: TIMESTEP
22
ITEM: NUMBER OF ATOMS
16
ITEM: BOX BOUNDS pp pp pp
-0.000488812 0.0404888
-0.000488812 0.0404888
-5e-06 5e-06
ITEM: ATOMS id type xs ys zs
1 1 -1.05834e-17 1 0.5
2 1 0.25 8.73127e-17 0.5
3 1 0.5 9.78961e-17 0.5
4 1 0.75 1 0.5
5 1 2.91042e-17 0.25 0.5
6 1 0.25 0.25 0.5
7 1 0.5 0.25 0.5
8 1 0.75 0.25 0.5
9 1 1.24354e-16 0.5 0.5
10 1 0.25 0.5 0.5
11 1 0.5 0.5 0.5
12 1 0.75 0.5 0.5
13 1 6.35001e-17 0.75 0.5
14 1 0.25 0.75 0.5
15 1 0.5 0.75 0.5
16 1 0.75 0.75 0.5
ITEM: TIMESTEP
23
ITEM: NUMBER OF ATOMS
16
ITEM: BOX BOUNDS pp pp pp
-0.000535125 0.0405351
-0.000535125 0.0405351
-5e-06 5e-06
ITEM: ATOMS id type xs ys zs
1 1 -1.05595e-17 1 0.5
2 1 0.25 8.97557e-17 0.5
3 1 0.5 1.02955e-16 0.5
4 1 0.75 1 0.5
5 1 2.90386e-17 0.25 0.5
6 1 0.25 0.25 0.5
7 1 0.5 0.25 0.5
8 1 0.75 0.25 0.5
9 1 1.29354e-16 0.5 0.5
10 1 0.25 0.5 0.5
11 1 0.5 0.5 0.5
12 1 0.75 0.5 0.5
13 1 6.59968e-17 0.75 0.5
14 1 0.25 0.75 0.5
15 1 0.5 0.75 0.5
16 1 0.75 0.75 0.5
ITEM: TIMESTEP
24
ITEM: NUMBER OF ATOMS
16
ITEM: BOX BOUNDS pp pp pp
-0.000583695 0.0405837
-0.000583695 0.0405837
-5e-06 5e-06
ITEM: ATOMS id type xs ys zs
1 1 0 1 0.5
2 1 0.25 9.21775e-17 0.5
3 1 0.5 1.07979e-16 0.5
4 1 0.75 1 0.5
5 1 2.89701e-17 0.25 0.5
6 1 0.25 0.25 0.5
7 1 0.5 0.25 0.5
8 1 0.75 0.25 0.5
9 1 1.34316e-16 0.5 0.5
10 1 0.25 0.5 0.5
11 1 0.5 0.5 0.5
12 1 0.75 0.5 0.5
13 1 6.84747e-17 0.75 0.5
14 1 0.25 0.75 0.5
15 1 0.5 0.75 0.5
16 1 0.75 0.75 0.5
ITEM: TIMESTEP
25
ITEM: NUMBER OF ATOMS
16
ITEM: BOX BOUNDS pp pp pp
-0.000634556 0.0406346
-0.000634556 0.0406346
-5e-06 5e-06
ITEM: ATOMS id type xs ys zs
1 1 0 1 0.5
2 1 0.25 9.45775e-17 0.5
3 1 0.5 1.12968e-16 0.5
4 1 0.75 1 0.5
5 1 3.15258e-17 0.25 0.5
6 1 0.25 0.25 0.5
7 1 0.5 0.25 0.5
8 1 0.75 0.25 0.5
9 1 1.39239e-16 0.5 0.5
10 1 0.25 0.5 0.5
11 1 0.5 0.5 0.5
12 1 0.75 0.5 0.5
13 1 7.09331e-17 0.75 0.5
14 1 0.25 0.75 0.5
15 1 0.5 0.75 0.5
16 1 0.75 0.75 0.5
ITEM: TIMESTEP
26
ITEM: NUMBER OF ATOMS
16
ITEM: BOX BOUNDS pp pp pp
-0.000687745 0.0406877
-0.000687745 0.0406877
-5e-06 5e-06
ITEM: ATOMS id type xs ys zs
1 1 0 1 0.5
2 1 0.25 9.69547e-17 0.5
3 1 0.5 1.17918e-16 0.5
4 1 0.75 1 0.5
5 1 3.40652e-17 0.25 0.5
6 1 0.25 0.25 0.5
7 1 0.5 0.25 0.5
8 1 0.75 0.25 0.5
9 1 1.44122e-16 0.5 0.5
10 1 0.25 0.5 0.5
11 1 0.5 0.5 0.5
12 1 0.75 0.5 0.5
13 1 7.33711e-17 0.75 0.5
14 1 0.25 0.75 0.5
15 1 0.5 0.75 0.5
16 1 0.75 0.75 0.5
ITEM: TIMESTEP
27
ITEM: NUMBER OF ATOMS
16
ITEM: BOX BOUNDS pp pp pp
-0.000743297 0.0407433
-0.000743297 0.0407433
-5e-06 5e-06
ITEM: ATOMS id type xs ys zs
1 1 0 1 0.5
2 1 0.25 9.93084e-17 0.5
3 1 0.5 1.22829e-16 0.5
4 1 0.75 1 0.5
5 1 3.65873e-17 0.25 0.5
6 1 0.25 0.25 0.5
7 1 0.5 0.25 0.5
8 1 0.75 0.25 0.5
9 1 1.48963e-16 0.5 0.5
10 1 0.25 0.5 0.5
11 1 0.5 0.5 0.5
12 1 0.75 0.5 0.5
13 1 7.5788e-17 0.75 0.5
14 1 0.25 0.75 0.5
15 1 0.5 0.75 0.5
16 1 0.75 0.75 0.5
ITEM: TIMESTEP
28
ITEM: NUMBER OF ATOMS
16
ITEM: BOX BOUNDS pp pp pp
-0.000801251 0.0408013
-0.000801251 0.0408013
-5e-06 5e-06
ITEM: ATOMS id type xs ys zs
1 1 0 1 0.5
2 1 0.25 1.04244e-16 0.5
3 1 0.5 1.27699e-16 0.5
4 1 0.75 1 0.5
5 1 3.90915e-17 0.25 0.5
6 1 0.25 0.25 0.5
7 1 0.5 0.25 0.5
8 1 0.75 0.25 0.5
9 1 1.5376e-16 0.5 0.5
10 1 0.25 0.5 0.5
11 1 0.5 0.5 0.5
12 1 0.75 0.5 0.5
13 1 7.8183e-17 0.75 0.5
14 1 0.25 0.75 0.5
15 1 0.5 0.75 0.5
16 1 0.75 0.75 0.5
ITEM: TIMESTEP
29
ITEM: NUMBER OF ATOMS
16
ITEM: BOX BOUNDS pp pp pp
-0.000861639 0.0408616
-0.000861639 0.0408616
-5e-06 5e-06
ITEM: ATOMS id type xs ys zs
1 1 0 1 0.5
2 1 0.25 1.09139e-16 0.5
3 1 0.5 1.32526e-16 0.5
4 1 0.75 1 0.5
5 1 4.15769e-17 0.25 0.5
6 1 0.25 0.25 0.5
7 1 0.5 0.25 0.5
8 1 0.75 0.25 0.5
9 1 1.58512e-16 0.5 0.5
10 1 0.25 0.5 0.5
11 1 0.5 0.5 0.5
12 1 0.75 0.5 0.5
13 1 8.05552e-17 0.75 0.5
14 1 0.25 0.75 0.5
15 1 0.5 0.75 0.5
16 1 0.75 0.75 0.5
ITEM: TIMESTEP
30
ITEM: NUMBER OF ATOMS
16
ITEM: BOX BOUNDS pp pp pp
-0.000924497 0.0409245
-0.000924497 0.0409245
-5e-06 5e-06
ITEM: ATOMS id type xs ys zs
1 1 0 1 0.5
2 1 0.25 1.13993e-16 0.5
3 1 0.5 1.3731e-16 0.5
4 1 0.75 1 0.5
5 1 4.40427e-17 0.25 0.5
6 1 0.25 0.25 0.5
7 1 0.5 0.25 0.5
8 1 0.75 0.25 0.5
9 1 1.63217e-16 0.5 0.5
10 1 0.25 0.5 0.5
11 1 0.5 0.5 0.5
12 1 0.75 0.5 0.5
13 1 8.2904e-17 0.75 0.5
14 1 0.25 0.75 0.5
15 1 0.5 0.75 0.5
16 1 0.75 0.75 0.5
ITEM: TIMESTEP
31
ITEM: NUMBER OF ATOMS
16
ITEM: BOX BOUNDS pp pp pp
-0.000989854 0.0409899
-0.000989854 0.0409899
-5e-06 5e-06
ITEM: ATOMS id type xs ys zs
1 1 0 1 0.5
2 1 0.25 1.18803e-16 0.5
3 1 0.5 1.4463e-16 0.5
4 1 0.75 1 0.5
5 1 4.64883e-17 0.25 0.5
6 1 0.25 0.25 0.5
7 1 0.5 0.25 0.5
8 1 0.75 0.25 0.5
9 1 1.70457e-16 0.5 0.5
10 1 0.25 0.5 0.5
11 1 0.5 0.5 0.5
12 1 0.75 0.5 0.5
13 1 8.78112e-17 0.75 0.5
14 1 0.25 0.75 0.5
15 1 0.5 0.75 0.5
16 1 0.75 0.75 0.5
ITEM: TIMESTEP
32
ITEM: NUMBER OF ATOMS
16
ITEM: BOX BOUNDS pp pp pp
-0.00105774 0.0410577
-0.00105774 0.0410577
-5e-06 5e-06
ITEM: ATOMS id type xs ys zs
1 1 0 1 0.5
2 1 0.25 1.23569e-16 0.5
3 1 0.5 1.49313e-16 0.5
4 1 0.75 1 0.5
5 1 4.63384e-17 0.25 0.5
6 1 0.25 0.25 0.5
7 1 0.5 0.25 0.5
8 1 0.75 0.25 0.5
9 1 1.75056e-16 0.5 0.5
10 1 0.25 0.5 0.5
11 1 0.5 0.5 0.5
12 1 0.75 0.5 0.5
13 1 9.26768e-17 0.75 0.5
14 1 0.25 0.75 0.5
15 1 0.5 0.75 0.5
16 1 0.75 0.75 0.5
ITEM: TIMESTEP
33
ITEM: NUMBER OF ATOMS
16
ITEM: BOX BOUNDS pp pp pp
-0.00112817 0.0411282
-0.00112817 0.0411282
-5e-06 5e-06
ITEM: ATOMS id type xs ys zs
1 1 0 1 0.5
2 1 0.25 1.28289e-16 0.5
3 1 0.5 1.53946e-16 0.5
4 1 0.75 1 0.5
5 1 4.61839e-17 0.25 0.5
6 1 0.25 0.25 0.5
7 1 0.5 0.25 0.5
8 1 0.75 0.25 0.5
9 1 1.79604e-16 0.5 0.5
10 1 0.25 0.5 0.5
11 1 0.5 0.5 0.5
12 1 0.75 0.5 0.5
13 1 9.74994e-17 0.75 0.5
14 1 0.25 0.75 0.5
15 1 0.5 0.75 0.5
16 1 0.75 0.75 0.5
ITEM: TIMESTEP
34
ITEM: NUMBER OF ATOMS
16
ITEM: BOX BOUNDS pp pp pp
-0.00120116 0.0412012
-0.00120116 0.0412012
-5e-06 5e-06
ITEM: ATOMS id type xs ys zs
1 1 0 1 0.5
2 1 0.25 1.32961e-16 0.5
3 1 0.5 1.5853e-16 0.5
4 1 0.75 1 0.5
5 1 4.60249e-17 0.25 0.5
6 1 0.25 0.25 0.5
7 1 0.5 0.25 0.5
8 1 0.75 0.25 0.5
9 1 1.841e-16 0.5 0.5
10 1 0.25 0.5 0.5
11 1 0.5 0.5 0.5
12 1 0.75 0.5 0.5
13 1 1.02278e-16 0.75 0.5
14 1 0.25 0.75 0.5
15 1 0.5 0.75 0.5
16 1 0.75 0.75 0.5
ITEM: TIMESTEP
35
ITEM: NUMBER OF ATOMS
16
ITEM: BOX BOUNDS pp pp pp
-0.00127672 0.0412767
-0.00127672 0.0412767
-5e-06 5e-06
ITEM: ATOMS id type xs ys zs
1 1 0 1 0.5
2 1 0.25 1.37584e-16 0.5
3 1 0.5 1.63063e-16 0.5
4 1 0.75 1 0.5
5 1 4.58615e-17 0.25 0.5
6 1 0.25 0.25 0.5
7 1 0.5 0.25 0.5
8 1 0.75 0.25 0.5
9 1 1.88542e-16 0.5 0.5
10 1 0.25 0.5 0.5
11 1 0.5 0.5 0.5
12 1 0.75 0.5 0.5
13 1 1.0701e-16 0.75 0.5
14 1 0.25 0.75 0.5
15 1 0.5 0.75 0.5
16 1 0.75 0.75 0.5
ITEM: TIMESTEP
36
ITEM: NUMBER OF ATOMS
16
ITEM: BOX BOUNDS pp pp pp
-0.00135486 0.0413549
-0.00135486 0.0413549
-5e-06 5e-06
ITEM: ATOMS id type xs ys zs
1 1 0 1 0.5
2 1 0.25 1.42158e-16 0.5
3 1 0.5 1.67543e-16 0.5
4 1 0.75 1 0.5
5 1 4.56937e-17 0.25 0.5
6 1 0.25 0.25 0.5
7 1 0.5 0.25 0.5
8 1 0.75 0.25 0.5
9 1 1.92929e-16 0.5 0.5
10 1 0.25 0.5 0.5
11 1 0.5 0.5 0.5
12 1 0.75 0.5 0.5
13 1 1.11696e-16 0.75 0.5
14 1 0.25 0.75 0.5
15 1 0.5 0.75 0.5
16 1 0.75 0.75 0.5
ITEM: TIMESTEP
37
ITEM: NUMBER OF ATOMS
16
ITEM: BOX BOUNDS pp pp pp
-0.00143556 0.0414356
-0.00143556 0.0414356
-5e-06 5e-06
ITEM: ATOMS id type xs ys zs
1 1 0 1 0.5
2 1 0.25 1.46681e-16 0.5
3 1 0.5 1.71971e-16 0.5
4 1 0.75 1 0.5
5 1 4.55216e-17 0.25 0.5
6 1 0.25 0.25 0.5
7 1 0.5 0.25 0.5
8 1 0.75 0.25 0.5
9 1 1.9726e-16 0.5 0.5
10 1 0.25 0.5 0.5
11 1 0.5 0.5 0.5
12 1 0.75 0.5 0.5
13 1 1.16333e-16 0.75 0.5
14 1 0.25 0.75 0.5
15 1 0.5 0.75 0.5
16 1 0.75 0.75 0.5
ITEM: TIMESTEP
38
ITEM: NUMBER OF ATOMS
16
ITEM: BOX BOUNDS pp pp pp
-0.00151881 0.0415188
-0.00151881 0.0415188
-5e-06 5e-06
ITEM: ATOMS id type xs ys zs
1 1 0 1 0.5
2 1 0.25 1.51152e-16 0.5
3 1 0.5 1.76344e-16 0.5
4 1 0.75 1 0.5
5 1 4.53455e-17 0.25 0.5
6 1 0.25 0.25 0.5
7 1 0.5 0.25 0.5
8 1 0.75 0.25 0.5
9 1 2.01536e-16 0.5 0.5
10 1 0.25 0.5 0.5
11 1 0.5 0.5 0.5
12 1 0.75 0.5 0.5
13 1 1.20921e-16 0.75 0.5
14 1 0.25 0.75 0.5
15 1 0.5 0.75 0.5
16 1 0.75 0.75 0.5
ITEM: TIMESTEP
39
ITEM: NUMBER OF ATOMS
16
ITEM: BOX BOUNDS pp pp pp
-0.00160457 0.0416046
-0.00160457 0.0416046
-5e-06 5e-06
ITEM: ATOMS id type xs ys zs
1 1 0 1 0.5
2 1 0.25 1.5557e-16 0.5
3 1 0.5 1.80662e-16 0.5
4 1 0.75 1 0.5
5 1 4.51655e-17 0.25 0.5
6 1 0.25 0.25 0.5
7 1 0.5 0.25 0.5
8 1 0.75 0.25 0.5
9 1 2.05754e-16 0.5 0.5
10 1 0.25 0.5 0.5
11 1 0.5 0.5 0.5
12 1 0.75 0.5 0.5
13 1 1.2546e-16 0.75 0.5
14 1 0.25 0.75 0.5
15 1 0.5 0.75 0.5
16 1 0.75 0.75 0.5
ITEM: TIMESTEP
40
ITEM: NUMBER OF ATOMS
16
ITEM: BOX BOUNDS pp pp pp
-0.00169283 0.0416928
-0.00169283 0.0416928
-5e-06 5e-06
ITEM: ATOMS id type xs ys zs
1 1 0 1 0.5
2 1 0.25 1.59935e-16 0.5
3 1 0.5 1.84925e-16 0.5
4 1 0.75 1 0.5
5 1 4.49818e-17 0.25 0.5
6 1 0.25 0.25 0.5
7 1 0.5 0.25 0.5
8 1 0.75 0.25 0.5
9 1 2.09915e-16 0.5 0.5
10 1 0.25 0.5 0.5
11 1 0.5 0.5 0.5
12 1 0.75 0.5 0.5
13 1 1.29947e-16 0.75 0.5
14 1 0.25 0.75 0.5
15 1 0.5 0.75 0.5
16 1 0.75 0.75 0.5
ITEM: TIMESTEP
41
ITEM: NUMBER OF ATOMS
16
ITEM: BOX BOUNDS pp pp pp
-0.00178353 0.0417835
-0.00178353 0.0417835
-5e-06 5e-06
ITEM: ATOMS id type xs ys zs
1 1 0 1 0.5
2 1 0.25 1.64246e-16 0.5
3 1 0.5 1.89132e-16 0.5
4 1 0.75 1 0.5
5 1 4.47945e-17 0.25 0.5
6 1 0.25 0.25 0.5
7 1 0.5 0.25 0.5
8 1 0.75 0.25 0.5
9 1 2.14018e-16 0.5 0.5
10 1 0.25 0.5 0.5
11 1 0.5 0.5 0.5
12 1 0.75 0.5 0.5
13 1 1.34383e-16 0.75 0.5
14 1 0.25 0.75 0.5
15 1 0.5 0.75 0.5
16 1 0.75 0.75 0.5
ITEM: TIMESTEP
42
ITEM: NUMBER OF ATOMS
16
ITEM: BOX BOUNDS pp pp pp
-0.00187662 0.0418766
-0.00187662 0.0418766
-5e-06 5e-06
ITEM: ATOMS id type xs ys zs
1 1 0 1 0.5
2 1 0.25 1.68504e-16 0.5
3 1 0.5 1.93283e-16 0.5
4 1 0.75 1 0.5
5 1 4.46039e-17 0.25 0.5
6 1 0.25 0.25 0.5
7 1 0.5 0.25 0.5
8 1 0.75 0.25 0.5
9 1 2.18063e-16 0.5 0.5
10 1 0.25 0.5 0.5
11 1 0.5 0.5 0.5
12 1 0.75 0.5 0.5
13 1 1.38768e-16 0.75 0.5
14 1 0.25 0.75 0.5
15 1 0.5 0.75 0.5
16 1 0.75 0.75 0.5
ITEM: TIMESTEP
43
ITEM: NUMBER OF ATOMS
16
ITEM: BOX BOUNDS pp pp pp
-0.00197203 0.041972
-0.00197203 0.041972
-5e-06 5e-06
ITEM: ATOMS id type xs ys zs
1 1 0 1 0.5
2 1 0.25 1.77641e-16 0.5
3 1 0.5 1.97379e-16 0.5
4 1 0.75 1 0.5
5 1 4.93447e-17 0.25 0.5
6 1 0.25 0.25 0.5
7 1 0.5 0.25 0.5
8 1 0.75 0.25 0.5
9 1 2.26985e-16 0.5 0.5
10 1 0.25 0.5 0.5
11 1 0.5 0.5 0.5
12 1 0.75 0.5 0.5
13 1 1.48034e-16 0.75 0.5
14 1 0.25 0.75 0.5
15 1 0.5 0.75 0.5
16 1 0.75 0.75 0.5
ITEM: TIMESTEP
44
ITEM: NUMBER OF ATOMS
16
ITEM: BOX BOUNDS pp pp pp
-0.00206969 0.0420697
-0.00206969 0.0420697
-5e-06 5e-06
ITEM: ATOMS id type xs ys zs
1 1 0 1 0.5
2 1 0.25 1.76855e-16 0.5
3 1 0.5 1.96505e-16 0.5
4 1 0.75 1 0.5
5 1 4.91263e-17 0.25 0.5
6 1 0.25 0.25 0.5
7 1 0.5 0.25 0.5
8 1 0.75 0.25 0.5
9 1 2.35806e-16 0.5 0.5
10 1 0.25 0.5 0.5
11 1 0.5 0.5 0.5
12 1 0.75 0.5 0.5
13 1 1.47379e-16 0.75 0.5
14 1 0.25 0.75 0.5
15 1 0.5 0.75 0.5
16 1 0.75 0.75 0.5
ITEM: TIMESTEP
45
ITEM: NUMBER OF ATOMS
16
ITEM: BOX BOUNDS pp pp pp
-0.00216952 0.0421695
-0.00216952 0.0421695
-5e-06 5e-06
ITEM: ATOMS id type xs ys zs
1 1 0 1 0.5
2 1 0.25 1.76058e-16 0.5
3 1 0.5 1.9562e-16 0.5
4 1 0.75 1 0.5
5 1 4.89051e-17 0.25 0.5
6 1 0.25 0.25 0.5
7 1 0.5 0.25 0.5
8 1 0.75 0.25 0.5
9 1 2.44525e-16 0.5 0.5
10 1 0.25 0.5 0.5
11 1 0.5 0.5 0.5
12 1 0.75 0.5 0.5
13 1 1.46715e-16 0.75 0.5
14 1 0.25 0.75 0.5
15 1 0.5 0.75 0.5
16 1 0.75 0.75 0.5
ITEM: TIMESTEP
46
ITEM: NUMBER OF ATOMS
16
ITEM: BOX BOUNDS pp pp pp
-0.00227144 0.0422714
-0.00227144 0.0422714
-5e-06 5e-06
ITEM: ATOMS id type xs ys zs
1 1 0 1 0.5
2 1 0.25 1.75253e-16 0.5
3 1 0.5 1.94725e-16 0.5
4 1 0.75 1 0.5
5 1 4.86813e-17 0.25 0.5
6 1 0.25 0.25 0.5
7 1 0.5 0.25 0.5
8 1 0.75 0.25 0.5
9 1 2.53143e-16 0.5 0.5
10 1 0.25 0.5 0.5
11 1 0.5 0.5 0.5
12 1 0.75 0.5 0.5
13 1 1.46044e-16 0.75 0.5
14 1 0.25 0.75 0.5
15 1 0.5 0.75 0.5
16 1 0.75 0.75 0.5
ITEM: TIMESTEP
47
ITEM: NUMBER OF ATOMS
16
ITEM: BOX BOUNDS pp pp pp
-0.00237534 0.0423753
-0.00237534 0.0423753
-5e-06 5e-06
ITEM: ATOMS id type xs ys zs
1 1 0 1 0.5
2 1 0.25 1.74439e-16 0.5
3 1 0.5 1.93821e-16 0.5
4 1 0.75 1 0.5
5 1 4.84552e-17 0.25 0.5
6 1 0.25 0.25 0.5
7 1 0.5 0.25 0.5
8 1 0.75 0.25 0.5
9 1 2.61658e-16 0.5 0.5
10 1 0.25 0.5 0.5
11 1 0.5 0.5 0.5
12 1 0.75 0.5 0.5
13 1 1.45366e-16 0.75 0.5
14 1 0.25 0.75 0.5
15 1 0.5 0.75 0.5
16 1 0.75 0.75 0.5
ITEM: TIMESTEP
48
ITEM: NUMBER OF ATOMS
16
ITEM: BOX BOUNDS pp pp pp
-0.00248114 0.0424811
-0.00248114 0.0424811
-5e-06 5e-06
ITEM: ATOMS id type xs ys zs
1 1 0 1 0.5
2 1 0.25 1.73618e-16 0.5
3 1 0.5 1.92909e-16 0.5
4 1 0.75 1 0.5
5 1 4.82272e-17 0.25 0.5
6 1 0.25 0.25 0.5
7 1 0.5 0.25 0.5
8 1 0.75 0.25 0.5
9 1 2.70072e-16 0.5 0.5
10 1 0.25 0.5 0.5
11 1 0.5 0.5 0.5
12 1 0.75 0.5 0.5
13 1 1.44682e-16 0.75 0.5
14 1 0.25 0.75 0.5
15 1 0.5 0.75 0.5
16 1 0.75 0.75 0.5
ITEM: TIMESTEP
49
ITEM: NUMBER OF ATOMS
16
ITEM: BOX BOUNDS pp pp pp
-0.00258871 0.0425887
-0.00258871 0.0425887
-5e-06 5e-06
ITEM: ATOMS id type xs ys zs
1 1 0 1 0.5
2 1 0.25 1.72791e-16 0.5
3 1 0.5 1.9199e-16 0.5
4 1 0.75 1 0.5
5 1 4.79975e-17 0.25 0.5
6 1 0.25 0.25 0.5
7 1 0.5 0.25 0.5
8 1 0.75 0.25 0.5
9 1 2.78386e-16 0.5 0.5
10 1 0.25 0.5 0.5
11 1 0.5 0.5 0.5
12 1 0.75 0.5 0.5
13 1 1.43993e-16 0.75 0.5
14 1 0.25 0.75 0.5
15 1 0.5 0.75 0.5
16 1 0.75 0.75 0.5
ITEM: TIMESTEP
50
ITEM: NUMBER OF ATOMS
16
ITEM: BOX BOUNDS pp pp pp
-0.00269796 0.042698
-0.00269796 0.042698
-5e-06 5e-06
ITEM: ATOMS id type xs ys zs
1 1 0 1 0.5
2 1 0.25 1.71959e-16 0.5
3 1 0.5 1.91066e-16 0.5
4 1 0.75 1 0.5
5 1 4.77665e-17 0.25 0.5
6 1 0.25 0.25 0.5
7 1 0.5 0.25 0.5
8 1 0.75 0.25 0.5
9 1 2.86599e-16 0.5 0.5
10 1 0.25 0.5 0.5
11 1 0.5 0.5 0.5
12 1 0.75 0.5 0.5
13 1 1.433e-16 0.75 0.5
14 1 0.25 0.75 0.5
15 1 0.5 0.75 0.5
16 1 0.75 0.75 0.5
ITEM: TIMESTEP
51
ITEM: NUMBER OF ATOMS
16
ITEM: BOX BOUNDS pp pp pp
-0.00280877 0.0428088
-0.00280877 0.0428088
-5e-06 5e-06
ITEM: ATOMS id type xs ys zs
1 1 0 1 0.5
2 1 0.25 1.71124e-16 0.5
3 1 0.5 1.90138e-16 0.5
4 1 0.75 1 0.5
5 1 4.75344e-17 0.25 0.5
6 1 0.25 0.25 0.5
7 1 0.5 0.25 0.5
8 1 0.75 0.25 0.5
9 1 2.94714e-16 0.5 0.5
10 1 0.25 0.5 0.5
11 1 0.5 0.5 0.5
12 1 0.75 0.5 0.5
13 1 1.42603e-16 0.75 0.5
14 1 0.25 0.75 0.5
15 1 0.5 0.75 0.5
16 1 0.75 0.75 0.5
ITEM: TIMESTEP
52
ITEM: NUMBER OF ATOMS
16
ITEM: BOX BOUNDS pp pp pp
-0.00292103 0.042921
-0.00292103 0.042921
-5e-06 5e-06
ITEM: ATOMS id type xs ys zs
1 1 0 1 0.5
2 1 0.25 1.70286e-16 0.5
3 1 0.5 1.89207e-16 0.5
4 1 0.75 1 0.5
5 1 4.73016e-17 0.25 0.5
6 1 0.25 0.25 0.5
7 1 0.5 0.25 0.5
8 1 0.75 0.25 0.5
9 1 3.02731e-16 0.5 0.5
10 1 0.25 0.5 0.5
11 1 0.5 0.5 0.5
12 1 0.75 0.5 0.5
13 1 1.41905e-16 0.75 0.5
14 1 0.25 0.75 0.5
15 1 0.5 0.75 0.5
16 1 0.75 0.75 0.5
ITEM: TIMESTEP
53
ITEM: NUMBER OF ATOMS
16
ITEM: BOX BOUNDS pp pp pp
-0.00303462 0.0430346
-0.00303462 0.0430346
-5e-06 5e-06
ITEM: ATOMS id type xs ys zs
1 1 0 1 0.5
2 1 0.25 1.69446e-16 0.5
3 1 0.5 1.88274e-16 0.5
4 1 0.75 1 0.5
5 1 4.70684e-17 0.25 0.5
6 1 0.25 0.25 0.5
7 1 0.5 0.25 0.5
8 1 0.75 0.25 0.5
9 1 3.01238e-16 0.5 0.5
10 1 0.25 0.5 0.5
11 1 0.5 0.5 0.5
12 1 0.75 0.5 0.5
13 1 1.41205e-16 0.75 0.5
14 1 0.25 0.75 0.5
15 1 0.5 0.75 0.5
16 1 0.75 0.75 0.5
ITEM: TIMESTEP
54
ITEM: NUMBER OF ATOMS
16
ITEM: BOX BOUNDS pp pp pp
-0.00314943 0.0431494
-0.00314943 0.0431494
-5e-06 5e-06
ITEM: ATOMS id type xs ys zs
1 1 0 0 0.5
2 1 0.25 1.68606e-16 0.5
3 1 0.5 1.8734e-16 0.5
4 1 0.75 0 0.5
5 1 4.68349e-17 0.25 0.5
6 1 0.25 0.25 0.5
7 1 0.5 0.25 0.5
8 1 0.75 0.25 0.5
9 1 2.99744e-16 0.5 0.5
10 1 0.25 0.5 0.5
11 1 0.5 0.5 0.5
12 1 0.75 0.5 0.5
13 1 1.40505e-16 0.75 0.5
14 1 0.25 0.75 0.5
15 1 0.5 0.75 0.5
16 1 0.75 0.75 0.5
ITEM: TIMESTEP
55
ITEM: NUMBER OF ATOMS
16
ITEM: BOX BOUNDS pp pp pp
-0.00326535 0.0432654
-0.00326535 0.0432654
-5e-06 5e-06
ITEM: ATOMS id type xs ys zs
1 1 0 -9.32032e-18 0.5
2 1 0.25 1.67766e-16 0.5
3 1 0.5 1.86406e-16 0.5
4 1 0.75 -9.32032e-18 0.5
5 1 4.66016e-17 0.25 0.5
6 1 0.25 0.25 0.5
7 1 0.5 0.25 0.5
8 1 0.75 0.25 0.5
9 1 2.9825e-16 0.5 0.5
10 1 0.25 0.5 0.5
11 1 0.5 0.5 0.5
12 1 0.75 0.5 0.5
13 1 1.39805e-16 0.75 0.5
14 1 0.25 0.75 0.5
15 1 0.5 0.75 0.5
16 1 0.75 0.75 0.5
ITEM: TIMESTEP
56
ITEM: NUMBER OF ATOMS
16
ITEM: BOX BOUNDS pp pp pp
-0.00338228 0.0433823
-0.00338228 0.0433823
-5e-06 5e-06
ITEM: ATOMS id type xs ys zs
1 1 0 -1.85474e-17 0.5
2 1 0.25 1.66927e-16 0.5
3 1 0.5 1.85474e-16 0.5
4 1 0.75 -1.85474e-17 0.5
5 1 4.63685e-17 0.25 0.5
6 1 0.25 0.25 0.5
7 1 0.5 0.25 0.5
8 1 0.75 0.25 0.5
9 1 2.96759e-16 0.5 0.5
10 1 0.25 0.5 0.5
11 1 0.5 0.5 0.5
12 1 0.75 0.5 0.5
13 1 1.39106e-16 0.75 0.5
14 1 0.25 0.75 0.5
15 1 0.5 0.75 0.5
16 1 0.75 0.75 0.5
ITEM: TIMESTEP
57
ITEM: NUMBER OF ATOMS
16
ITEM: BOX BOUNDS pp pp pp
-0.00350011 0.0435001
-0.00350011 0.0435001
-5e-06 5e-06
ITEM: ATOMS id type xs ys zs
1 1 0 -2.76816e-17 0.5
2 1 0.25 1.6609e-16 0.5
3 1 0.5 1.84544e-16 0.5
4 1 0.75 -2.76816e-17 0.5
5 1 4.61361e-17 0.25 0.5
6 1 0.25 0.25 0.5
7 1 0.5 0.25 0.5
8 1 0.75 0.25 0.5
9 1 2.95271e-16 0.5 0.5
10 1 0.25 0.5 0.5
11 1 0.5 0.5 0.5
12 1 0.75 0.5 0.5
13 1 1.38408e-16 0.75 0.5
14 1 0.25 0.75 0.5
15 1 0.5 0.75 0.5
16 1 0.75 0.75 0.5
ITEM: TIMESTEP
58
ITEM: NUMBER OF ATOMS
16
ITEM: BOX BOUNDS pp pp pp
-0.00361874 0.0436187
-0.00361874 0.0436187
-5e-06 5e-06
ITEM: ATOMS id type xs ys zs
1 1 0 -3.67235e-17 0.5
2 1 0.25 1.65256e-16 0.5
3 1 0.5 1.83617e-16 0.5
4 1 0.75 -3.67235e-17 0.5
5 1 4.59043e-17 0.25 0.5
6 1 0.25 0.25 0.5
7 1 0.5 0.25 0.5
8 1 0.75 0.25 0.5
9 1 2.93788e-16 0.5 0.5
10 1 0.25 0.5 0.5
11 1 0.5 0.5 0.5
12 1 0.75 0.5 0.5
13 1 1.37713e-16 0.75 0.5
14 1 0.25 0.75 0.5
15 1 0.5 0.75 0.5
16 1 0.75 0.75 0.5
ITEM: TIMESTEP
59
ITEM: NUMBER OF ATOMS
16
ITEM: BOX BOUNDS pp pp pp
-0.00373808 0.0437381
-0.00373808 0.0437381
-5e-06 5e-06
ITEM: ATOMS id type xs ys zs
1 1 0 -4.56735e-17 0.5
2 1 0.25 1.64425e-16 0.5
3 1 0.5 1.82694e-16 0.5
4 1 0.75 -4.56735e-17 0.5
5 1 4.56735e-17 0.25 0.5
6 1 0.25 0.25 0.5
7 1 0.5 0.25 0.5
8 1 0.75 0.25 0.5
9 1 2.92311e-16 0.5 0.5
10 1 0.25 0.5 0.5
11 1 0.5 0.5 0.5
12 1 0.75 0.5 0.5
13 1 1.37021e-16 0.75 0.5
14 1 0.25 0.75 0.5
15 1 0.5 0.75 0.5
16 1 0.75 0.75 0.5
ITEM: TIMESTEP
60
ITEM: NUMBER OF ATOMS
16
ITEM: BOX BOUNDS pp pp pp
-0.00385806 0.0438581
-0.00385806 0.0438581
-5e-06 5e-06
ITEM: ATOMS id type xs ys zs
1 1 0 -5.45326e-17 0.5
2 1 0.25 1.63598e-16 0.5
3 1 0.5 1.81775e-16 0.5
4 1 0.75 -5.45326e-17 0.5
5 1 4.54438e-17 0.25 0.5
6 1 0.25 0.25 0.5
7 1 0.5 0.25 0.5
8 1 0.75 0.25 0.5
9 1 2.90841e-16 0.5 0.5
10 1 0.25 0.5 0.5
11 1 0.5 0.5 0.5
12 1 0.75 0.5 0.5
13 1 1.36332e-16 0.75 0.5
14 1 0.25 0.75 0.5
15 1 0.5 0.75 0.5
16 1 0.75 0.75 0.5
ITEM: TIMESTEP
61
ITEM: NUMBER OF ATOMS
16
ITEM: BOX BOUNDS pp pp pp
-0.00397861 0.0439786
-0.00397861 0.0439786
-5e-06 5e-06
ITEM: ATOMS id type xs ys zs
1 1 0 -5.42585e-17 0.5
2 1 0.25 1.62775e-16 0.5
3 1 0.5 1.80862e-16 0.5
4 1 0.75 -5.42585e-17 0.5
5 1 5.42585e-17 0.25 0.5
6 1 0.25 0.25 0.5
7 1 0.5 0.25 0.5
8 1 0.75 0.25 0.5
9 1 2.89379e-16 0.5 0.5
10 1 0.25 0.5 0.5
11 1 0.5 0.5 0.5
12 1 0.75 0.5 0.5
13 1 1.44689e-16 0.75 0.5
14 1 0.25 0.75 0.5
15 1 0.5 0.75 0.5
16 1 0.75 0.75 0.5
ITEM: TIMESTEP
62
ITEM: NUMBER OF ATOMS
16
ITEM: BOX BOUNDS pp pp pp
-0.00409966 0.0440997
-0.00409966 0.0440997
-5e-06 5e-06
ITEM: ATOMS id type xs ys zs
1 1 0 -5.39859e-17 0.5
2 1 0.25 1.61958e-16 0.5
3 1 0.5 1.79953e-16 0.5
4 1 0.75 -5.39859e-17 0.5
5 1 5.39859e-17 0.25 0.5
6 1 0.25 0.25 0.5
7 1 0.5 0.25 0.5
8 1 0.75 0.25 0.5
9 1 2.87925e-16 0.5 0.5
10 1 0.25 0.5 0.5