LAMMPS (16 Feb 2016)
Lattice spacing in x,y,z = 0.01 0.01 0.01
Created orthogonal box = (0 0 -5e-06) to (0.04 0.04 5e-06)
  1 by 1 by 1 MPI processor grid
Created 16 atoms
Neighbor list info ...
  1 neighbor list requests
  update every 1 steps, delay 10 steps, check yes
  max neighbors/atom: 2000, page size: 100000
  master list distance cutoff = 0.00100025
  ghost atom cutoff = 0.00100025
  binsize = 0.000500125 -> bins = 80 80 1
Memory usage per processor = 3.50382 Mbytes
Step Temp E_pair TotEng Press Volume 
       0          300            0 6.2129268e-20 3.8830792e-17       0.0016 
      10    297.41893            0 6.1594735e-20 3.8115163e-17 0.0016160166 
      20    300.69233            0 6.2272649e-20 3.7398704e-17 0.0016651018 
      30    330.40852            0 6.8426799e-20 3.9071148e-17 0.0017513383 
      40      326.678            0 6.7654216e-20 3.5942015e-17 0.0018823156 
      50    267.38174            0 5.5374106e-20 2.6870338e-17 0.0020607893 
      60    245.74326            0 5.0892829e-20 2.2352509e-17 0.0022768285 
      70    360.43539            0 7.464529e-20 2.9657718e-17 0.0025168926 
      80    384.20495            0 7.9567907e-20 2.861989e-17 0.0027801612 
      90    235.29892            0 4.8729832e-20 1.5950461e-17 0.0030550736 
     100    156.56163            0 3.2423531e-20 9.7842155e-18 0.0033138611 
     110    261.48247            0 5.4152381e-20 1.5243129e-17 0.0035525764 
     120      382.874            0 7.9292271e-20 2.0819257e-17 0.0038086024 
     130    303.18125            0 6.2788096e-20 1.523986e-17 0.0041199916 
     140    216.30056            0 4.4795318e-20 9.999405e-18 0.0044797983 
     150    259.27963            0 5.3696178e-20 1.1024003e-17 0.0048708422 
     160     405.1043            0 8.3896111e-20 1.5801236e-17 0.0053094652 
     170     318.0405            0 6.5865412e-20 1.1300619e-17 0.0058284783 
     180    247.15205            0 5.1184587e-20 8.0011893e-18 0.0063971224 
     190    270.86211            0 5.6094883e-20 8.0374193e-18 0.0069792157 
     200    473.24158            0 9.8007177e-20 1.2920978e-17 0.0075851205 
     210    437.96048            0 9.0700547e-20 1.0929001e-17 0.0082990706 
     220     196.6946            0 4.0734971e-20 4.4821115e-18 0.0090883438 
     230    246.43222            0 5.1035512e-20 5.1849412e-18 0.0098430261 
     240    367.06663            0 7.6018602e-20 7.1688152e-18  0.010604068 
     250    344.18051            0 7.1278944e-20 6.2242325e-18  0.011451845 
     260    228.38621            0 4.7298226e-20 3.8206164e-18  0.012379737 
     270    199.58986            0 4.1334573e-20 3.1037233e-18  0.013317738 
     280    381.67189            0 7.9043318e-20 5.5398565e-18  0.014268117 
     290     363.7475            0 7.5331219e-20 4.9027972e-18  0.015364947 
     300     245.9758            0 5.0940989e-20 3.0677251e-18  0.016605461 
     310     230.8569            0 4.7809902e-20 2.673412e-18  0.017883477 
     320    439.35033            0 9.0988382e-20 4.7373658e-18  0.019206535 
     330    380.65517            0 7.8832757e-20 3.7959241e-18  0.020767738 
     340    259.52452            0 5.3746896e-20 2.3863341e-18  0.022522787 
     350    248.62085            0 5.1488772e-20 2.1176813e-18  0.024313749 
     360    354.13252            0 7.3339982e-20 2.8054521e-18  0.026141948 
     370    446.91647            0 9.2555311e-20 3.2831356e-18  0.028191133 
     380    189.29821            0 3.9203198e-20 1.2833316e-18  0.030547988 
     390    168.12458            0 3.481819e-20 1.0596929e-18  0.032856867 
     400    283.44926            0 5.870165e-20 1.6734898e-18  0.035077386 
     410     347.9068            0 7.205065e-20 1.9228068e-18  0.037471601 
     420     303.7062            0 6.2896813e-20 1.5645651e-18  0.040200828 
     430    227.62538            0 4.714066e-20 1.0918699e-18  0.043174245 
     440    217.25711            0 4.4993418e-20 9.7351019e-19  0.046217717 
     450    369.70509            0 7.6565021e-20 1.5508133e-18  0.049370883 
     460    365.73888            0 7.574363e-20 1.4284331e-18  0.053025677 
     470    239.47074            0 4.9593805e-20 8.6748371e-19  0.057169725 
     480    206.96073            0 4.2861062e-20 6.9794692e-19  0.061410202 
     490     421.4891            0 8.7289364e-20 1.3280702e-18  0.065726468 
     500    365.97157            0 7.579182e-20 1.0706237e-18  0.070792213 
     510    231.96592            0 4.8039576e-20 6.2828372e-19  0.076461596 
     520    232.68218            0 4.8187911e-20 5.864146e-19  0.082173792 
     530    390.75733            0 8.0924889e-20 9.1933779e-19  0.088025196 
     540     368.5483            0 7.6325454e-20 8.0559413e-19  0.094744302 
     550    282.84078            0 5.8575635e-20 5.7263221e-19    0.1022919 
     560    259.04649            0 5.3647896e-20 4.8694131e-19   0.11017323 
     570    338.49686            0 7.0101874e-20 5.9254272e-19   0.11830687 
     580    472.63134            0 9.7880797e-20 7.6836195e-19   0.12738892 
     590    235.34106            0 4.873856e-20 3.5301143e-19    0.1380651 
     600    178.69636            0 3.700758e-20 2.4868861e-19   0.14881091 
     610     257.2061            0 5.3266756e-20 3.3480827e-19    0.1590963 
     620    336.69791            0 6.9729315e-20 4.1058211e-19   0.16983038 
     630    319.84198            0 6.6238493e-20 3.6417484e-19   0.18188651 
     640    250.32937            0 5.1842602e-20 2.656439e-19   0.19515826 
     650    189.20055            0 3.9182973e-20 1.8757726e-19   0.20888978 
     660    264.90159            0 5.4860472e-20 2.4647553e-19   0.22257979 
     670    383.26845            0 7.9373961e-20 3.3431766e-19   0.23742078 
     680    309.80823            0 6.4160529e-20 2.5175594e-19    0.2548521 
     690    213.82584            0 4.428281e-20 1.6168937e-19   0.27387583 
     700    230.15915            0 4.7665398e-20 1.6265948e-19   0.29303794 
     710    418.33479            0 8.6636114e-20 2.7664873e-19   0.31316289 
     720    328.15182            0 6.7959442e-20 2.0167902e-19   0.33696833 
     730    218.93563            0 4.5341035e-20 1.2490645e-19   0.36299994 
     740    248.58109            0 5.1480537e-20 1.3231285e-19   0.38908191 
     750    443.03192            0 9.175083e-20 2.2024493e-19   0.41658543 
     760    339.01579            0 7.0209343e-20 1.5631326e-19   0.44915795 
     770    250.14274            0 5.1803952e-20 1.0686364e-19   0.48476686 
     780    259.92685            0 5.3830216e-20 1.0333263e-19   0.52094115 
     790    426.63349            0 8.8354755e-20 1.5815473e-19   0.55866021 
     800    382.89229            0 7.929606e-20 1.3154532e-19   0.60280411 
     810    209.97909            0 4.3486157e-20 6.6724561e-20   0.65172639 
     820    218.19911            0 4.5188502e-20 6.457962e-20   0.69973317 
     830    304.31832            0 6.3023582e-20 8.4305632e-20   0.74756076 
     840     369.0476            0 7.6428858e-20 9.5573781e-20   0.79968436 
     850     292.5424            0 6.0584818e-20 7.0528487e-20   0.85901202 
     860    181.16824            0 3.7519501e-20 4.0696817e-20   0.92192715 
     870    181.46925            0 3.7581838e-20 3.8223945e-20   0.98320145 
     880     354.9567            0 7.3510667e-20 7.0351418e-20    1.0449067 
     890    340.16544            0 7.0447433e-20 6.3102175e-20    1.1164026 
     900    247.77342            0 5.1313271e-20 4.2854383e-20    1.1973868 
     910    226.31578            0 4.6869445e-20 3.6564564e-20     1.281827 
     920    396.86851            0 8.2190501e-20 6.0008665e-20    1.3696439 
     930    380.72204            0 7.8846606e-20 5.3543856e-20    1.4725612 
     940    251.76632            0 5.214019e-20 3.2805603e-20    1.5893685 
     950    240.48327            0 4.9803498e-20 2.9144944e-20    1.7088212 
     960    282.78859            0 5.8564827e-20 3.2001356e-20    1.8300733 
     970    292.49082            0 6.0574136e-20 3.0932297e-20    1.9582812 
     980    295.44239            0 6.1185398e-20 2.9190282e-20    2.0960879 
     990    318.24522            0 6.5907808e-20 2.9356538e-20    2.2450811 
    1000    406.20395            0 8.4123847e-20 3.4906431e-20    2.4099813 
    1010    368.15272            0 7.624353e-20 2.9304986e-20    2.6017255 
    1020    203.39739            0 4.2123103e-20 1.4980149e-20    2.8119282 
    1030     206.5043            0 4.2766536e-20 1.417558e-20    3.0169161 
    1040     334.7826            0 6.9332659e-20 2.1527144e-20    3.2207087 
    1050    325.07776            0 6.7322812e-20 1.9535549e-20    3.4461695 
    1060    273.84861            0 5.6713379e-20 1.534896e-20     3.694933 
    1070    270.68616            0 5.6058443e-20 1.4164039e-20    3.9578008 
    1080    421.94641            0 8.7384072e-20 2.0614933e-20    4.2388725 
    1090    392.39836            0 8.1264742e-20 1.7777308e-20    4.5712625 
    1100    211.18514            0 4.3735927e-20 8.8470712e-21    4.9435487 
    1110    215.53233            0 4.4636219e-20 8.4069324e-21    5.3094538 
    1120    277.05513            0 5.7377441e-20 1.0116433e-20    5.6717069 
    1130    324.88675            0 6.7283254e-20 1.1109952e-20    6.0561244 
    1140    315.72041            0 6.5384926e-20 1.0085987e-20    6.4827494 
    1150    257.51803            0 5.3331355e-20 7.6739381e-21    6.9496723 
    1160    206.65058            0 4.279683e-20 5.7564153e-21    7.4346321 
    1170    291.13389            0 6.0293118e-20 7.608364e-21    7.9245839 
    1180    388.44932            0 8.0446906e-20 9.5050194e-21    8.4636235 
    1190    296.27622            0 6.1358083e-20 6.7482589e-21    9.0924317 
    1200    194.27375            0 4.023362e-20 4.1200281e-21    9.7653752 
    1210    207.48494            0 4.2969626e-20 4.1206131e-21    10.427969 
    1220    389.66118            0 8.069788e-20 7.2641284e-21    11.109093 
    1230    339.09535            0 7.0225819e-20 5.8970448e-21    11.908646 
    1240    224.82145            0 4.6559974e-20 3.6380386e-21    12.798098 
    1250    228.17939            0 4.7255395e-20 3.4496189e-21    13.698729 
    1260    421.35451            0 8.7261492e-20 5.9624538e-21    14.635164 
    1270    349.86186            0 7.2455539e-20 4.6034213e-21    15.739498 
    1280    252.62492            0 5.2318005e-20 3.0838331e-21    16.965252 
    1290    255.27131            0 5.2866066e-20 2.9018005e-21    18.218367 
    1300    415.16842            0 8.5980368e-20 4.4048478e-21    19.519486 
    1310    443.12098            0 9.1769273e-20 4.3593351e-21    21.051209 
    1320    189.14008            0 3.917045e-20 1.7182952e-21    22.796113 
    1330    212.81157            0 4.4072757e-20 1.8004222e-21    24.479124 
    1340    332.85788            0 6.8934054e-20 2.6366168e-21    26.144889 
    1350    365.39836            0 7.5673109e-20 2.7036572e-21    27.989165 
    1360    261.60143            0 5.4177017e-20 1.8019323e-21    30.066067 
    1370    186.69079            0 3.8663207e-20 1.2002249e-21    32.213302 
    1380    278.63175            0 5.7703955e-20 1.6811322e-21    34.324461 
    1390      399.571            0 8.275018e-20 2.2594937e-21    36.623328 
    1400    289.67992            0 5.9992005e-20 1.5254338e-21    39.327833 
    1410    215.55294            0 4.4640487e-20 1.0573928e-21    42.217505 
    1420    305.82092            0 6.3334767e-20 1.4033597e-21    45.130815 
    1430    441.72744            0 9.1480675e-20 1.891417e-21    48.366212 
    1440    293.57982            0 6.0799664e-20 1.1648055e-21    52.197268 
    1450     236.6653            0 4.9012807e-20 8.7158804e-22    56.233914 
    1460    290.36385            0 6.0133645e-20 9.9732002e-22    60.295235 
    1470    443.29132            0 9.1804551e-20 1.4201179e-21    64.645727 
    1480    298.79664            0 6.1880056e-20 8.8687031e-22    69.773511 
    1490    156.01058            0 3.230941e-20 4.2999112e-22    75.139714 
    1500    232.91972            0 4.8237105e-20 6.0159817e-22    80.181602 
    1510     345.9518            0 7.1645774e-20 8.3938938e-22    85.354635 
    1520    332.04577            0 6.8765869e-20 7.536471e-22    91.244123 
    1530    245.56386            0 5.0855676e-20 5.1999018e-22    97.801224 
    1540    199.59217            0 4.133505e-20 3.9528755e-22    104.56957 
    1550    323.91841            0 6.7082713e-20 6.0220052e-22    111.39597 
    1560    393.66656            0 8.1527385e-20 6.8455812e-22    119.09491 
    1570    269.71855            0 5.5858054e-20 4.3617076e-22    128.06465 
    1580    209.51288            0 4.3389606e-20 3.1564273e-22     137.4643 
    1590    369.24723            0 7.6470201e-20 5.2050605e-22    146.91511 
    1600    416.60361            0 8.6277591e-20 5.4693737e-22    157.74675 
    1610    258.65929            0 5.3567709e-20 3.145539e-22    170.29739 
    1620    226.93172            0 4.6997006e-20 2.5662359e-22    183.13595 
    1630    335.69965            0 6.9522579e-20 3.5466295e-22    196.02436 
    1640    407.30014            0 8.4350866e-20 4.0104933e-22    210.32541 
    1650    311.26541            0 6.4462308e-20 2.842792e-22    226.75703 
    1660    271.60906            0 5.6249574e-20 2.3030861e-22    244.23565 
    1670     288.0367            0 5.9651698e-20 2.2746835e-22    262.24175 
    1680     382.4814            0 7.9210964e-20 2.8160745e-22    281.28149 
    1690    396.60933            0 8.2136825e-20 2.7113457e-22    302.93749 
    1700    197.43875            0 4.0889082e-20 1.2504376e-22    326.99817 
    1710    180.62432            0 3.7406857e-20 1.0676301e-22     350.3728 
    1720    285.34225            0 5.9093684e-20 1.5842215e-22    373.01402 
    1730     316.9886            0 6.5647567e-20 1.6521312e-22     397.3508 
    1740    297.75585            0 6.1664509e-20 1.4527123e-22    424.47847 
    1750     283.8499            0 5.8784623e-20 1.2945492e-22    454.09339 
