LAMMPS (16 Feb 2016)
Total wall time: 0:11:55
