ITEM: TIMESTEP
0
ITEM: NUMBER OF ATOMS
1
ITEM: BOX BOUNDS pp pp pp
0 2e-05
0 1e-05
-5e-06 5e-06
ITEM: ATOMS id x y z vx vy vz fx fy fz 
2 1e-05 0 0 0 0 0 0 0 0 
ITEM: TIMESTEP
1000
ITEM: NUMBER OF ATOMS
1
ITEM: BOX BOUNDS pp pp pp
0 2e-05
0 1e-05
-5e-06 5e-06
ITEM: ATOMS id x y z vx vy vz fx fy fz 
2 9.99e-06 0 0 -1e-06 0 0 0 0 0 
ITEM: TIMESTEP
2000
ITEM: NUMBER OF ATOMS
1
ITEM: BOX BOUNDS pp pp pp
0 2e-05
0 1e-05
-5e-06 5e-06
ITEM: ATOMS id x y z vx vy vz fx fy fz 
2 9.98e-06 0 0 -1e-06 0 0 0 0 0 
ITEM: TIMESTEP
3000
ITEM: NUMBER OF ATOMS
1
ITEM: BOX BOUNDS pp pp pp
0 2e-05
0 1e-05
-5e-06 5e-06
ITEM: ATOMS id x y z vx vy vz fx fy fz 
2 9.97e-06 0 0 -1e-06 0 0 0 0 0 
ITEM: TIMESTEP
4000
ITEM: NUMBER OF ATOMS
1
ITEM: BOX BOUNDS pp pp pp
0 2e-05
0 1e-05
-5e-06 5e-06
ITEM: ATOMS id x y z vx vy vz fx fy fz 
2 9.96e-06 0 0 -1e-06 0 0 0 0 0 
ITEM: TIMESTEP
5000
ITEM: NUMBER OF ATOMS
1
ITEM: BOX BOUNDS pp pp pp
0 2e-05
0 1e-05
-5e-06 5e-06
ITEM: ATOMS id x y z vx vy vz fx fy fz 
2 9.95e-06 0 0 -1e-06 0 0 0 0 0 
ITEM: TIMESTEP
6000
ITEM: NUMBER OF ATOMS
1
ITEM: BOX BOUNDS pp pp pp
0 2e-05
0 1e-05
-5e-06 5e-06
ITEM: ATOMS id x y z vx vy vz fx fy fz 
2 9.94e-06 0 0 -1e-06 0 0 0 0 0 
ITEM: TIMESTEP
7000
ITEM: NUMBER OF ATOMS
1
ITEM: BOX BOUNDS pp pp pp
0 2e-05
0 1e-05
-5e-06 5e-06
ITEM: ATOMS id x y z vx vy vz fx fy fz 
2 9.93e-06 0 0 -1e-06 0 0 0 0 0 
ITEM: TIMESTEP
8000
ITEM: NUMBER OF ATOMS
1
ITEM: BOX BOUNDS pp pp pp
0 2e-05
0 1e-05
-5e-06 5e-06
ITEM: ATOMS id x y z vx vy vz fx fy fz 
2 9.92e-06 0 0 -1e-06 0 0 0 0 0 
ITEM: TIMESTEP
9000
ITEM: NUMBER OF ATOMS
1
ITEM: BOX BOUNDS pp pp pp
0 2e-05
0 1e-05
-5e-06 5e-06
ITEM: ATOMS id x y z vx vy vz fx fy fz 
2 9.91e-06 0 0 -1e-06 0 0 0 0 0 
ITEM: TIMESTEP
10000
ITEM: NUMBER OF ATOMS
1
ITEM: BOX BOUNDS pp pp pp
0 2e-05
0 1e-05
-5e-06 5e-06
ITEM: ATOMS id x y z vx vy vz fx fy fz 
2 9.9e-06 0 0 -1e-06 0 0 0 0 0 
ITEM: TIMESTEP
11000
ITEM: NUMBER OF ATOMS
1
ITEM: BOX BOUNDS pp pp pp
0 2e-05
0 1e-05
-5e-06 5e-06
ITEM: ATOMS id x y z vx vy vz fx fy fz 
2 9.89e-06 0 0 -1e-06 0 0 0 0 0 
ITEM: TIMESTEP
12000
ITEM: NUMBER OF ATOMS
1
ITEM: BOX BOUNDS pp pp pp
0 2e-05
0 1e-05
-5e-06 5e-06
ITEM: ATOMS id x y z vx vy vz fx fy fz 
2 9.88e-06 0 0 -1e-06 0 0 0 0 0 
ITEM: TIMESTEP
13000
ITEM: NUMBER OF ATOMS
1
ITEM: BOX BOUNDS pp pp pp
0 2e-05
0 1e-05
-5e-06 5e-06
ITEM: ATOMS id x y z vx vy vz fx fy fz 
2 9.87e-06 0 0 -1e-06 0 0 0 0 0 
ITEM: TIMESTEP
14000
ITEM: NUMBER OF ATOMS
1
ITEM: BOX BOUNDS pp pp pp
0 2e-05
0 1e-05
-5e-06 5e-06
ITEM: ATOMS id x y z vx vy vz fx fy fz 
2 9.86e-06 0 0 -1e-06 0 0 0 0 0 
ITEM: TIMESTEP
15000
ITEM: NUMBER OF ATOMS
1
ITEM: BOX BOUNDS pp pp pp
0 2e-05
0 1e-05
-5e-06 5e-06
ITEM: ATOMS id x y z vx vy vz fx fy fz 
2 9.85e-06 0 0 -1e-06 0 0 0 0 0 
ITEM: TIMESTEP
16000
ITEM: NUMBER OF ATOMS
1
ITEM: BOX BOUNDS pp pp pp
0 2e-05
0 1e-05
-5e-06 5e-06
ITEM: ATOMS id x y z vx vy vz fx fy fz 
2 9.84e-06 0 0 -1e-06 0 0 0 0 0 
ITEM: TIMESTEP
17000
ITEM: NUMBER OF ATOMS
1
ITEM: BOX BOUNDS pp pp pp
0 2e-05
0 1e-05
-5e-06 5e-06
ITEM: ATOMS id x y z vx vy vz fx fy fz 
2 9.83e-06 0 0 -1e-06 0 0 0 0 0 
ITEM: TIMESTEP
18000
ITEM: NUMBER OF ATOMS
1
ITEM: BOX BOUNDS pp pp pp
0 2e-05
0 1e-05
-5e-06 5e-06
ITEM: ATOMS id x y z vx vy vz fx fy fz 
2 9.82e-06 0 0 -1e-06 0 0 0 0 0 
ITEM: TIMESTEP
19000
ITEM: NUMBER OF ATOMS
1
ITEM: BOX BOUNDS pp pp pp
0 2e-05
0 1e-05
-5e-06 5e-06
ITEM: ATOMS id x y z vx vy vz fx fy fz 
2 9.81e-06 0 0 -1e-06 0 0 0 0 0 
ITEM: TIMESTEP
20000
ITEM: NUMBER OF ATOMS
1
ITEM: BOX BOUNDS pp pp pp
0 2e-05
0 1e-05
-5e-06 5e-06
ITEM: ATOMS id x y z vx vy vz fx fy fz 
2 9.8e-06 0 0 -1e-06 0 0 0 0 0 
ITEM: TIMESTEP
21000
ITEM: NUMBER OF ATOMS
1
ITEM: BOX BOUNDS pp pp pp
0 2e-05
0 1e-05
-5e-06 5e-06
ITEM: ATOMS id x y z vx vy vz fx fy fz 
2 9.79e-06 0 0 -1e-06 0 0 0 0 0 
ITEM: TIMESTEP
22000
ITEM: NUMBER OF ATOMS
1
ITEM: BOX BOUNDS pp pp pp
0 2e-05
0 1e-05
-5e-06 5e-06
ITEM: ATOMS id x y z vx vy vz fx fy fz 
2 9.78e-06 0 0 -1e-06 0 0 0 0 0 
ITEM: TIMESTEP
23000
ITEM: NUMBER OF ATOMS
1
ITEM: BOX BOUNDS pp pp pp
0 2e-05
0 1e-05
-5e-06 5e-06
ITEM: ATOMS id x y z vx vy vz fx fy fz 
2 9.77e-06 0 0 -1e-06 0 0 0 0 0 
ITEM: TIMESTEP
24000
ITEM: NUMBER OF ATOMS
1
ITEM: BOX BOUNDS pp pp pp
0 2e-05
0 1e-05
-5e-06 5e-06
ITEM: ATOMS id x y z vx vy vz fx fy fz 
2 9.76e-06 0 0 -1e-06 0 0 0 0 0 
ITEM: TIMESTEP
25000
ITEM: NUMBER OF ATOMS
1
ITEM: BOX BOUNDS pp pp pp
0 2e-05
0 1e-05
-5e-06 5e-06
ITEM: ATOMS id x y z vx vy vz fx fy fz 
2 9.75e-06 0 0 -1e-06 0 0 0 0 0 
ITEM: TIMESTEP
26000
ITEM: NUMBER OF ATOMS
1
ITEM: BOX BOUNDS pp pp pp
0 2e-05
0 1e-05
-5e-06 5e-06
ITEM: ATOMS id x y z vx vy vz fx fy fz 
2 9.74e-06 0 0 -1e-06 0 0 0 0 0 
ITEM: TIMESTEP
27000
ITEM: NUMBER OF ATOMS
1
ITEM: BOX BOUNDS pp pp pp
0 2e-05
0 1e-05
-5e-06 5e-06
ITEM: ATOMS id x y z vx vy vz fx fy fz 
2 9.73e-06 0 0 -1e-06 0 0 0 0 0 
ITEM: TIMESTEP
28000
ITEM: NUMBER OF ATOMS
1
ITEM: BOX BOUNDS pp pp pp
0 2e-05
0 1e-05
-5e-06 5e-06
ITEM: ATOMS id x y z vx vy vz fx fy fz 
2 9.72e-06 0 0 -1e-06 0 0 0 0 0 
ITEM: TIMESTEP
29000
ITEM: NUMBER OF ATOMS
1
ITEM: BOX BOUNDS pp pp pp
0 2e-05
0 1e-05
-5e-06 5e-06
ITEM: ATOMS id x y z vx vy vz fx fy fz 
2 9.71e-06 0 0 -1e-06 0 0 0 0 0 
ITEM: TIMESTEP
30000
ITEM: NUMBER OF ATOMS
1
ITEM: BOX BOUNDS pp pp pp
0 2e-05
0 1e-05
-5e-06 5e-06
ITEM: ATOMS id x y z vx vy vz fx fy fz 
2 9.7e-06 0 0 -1e-06 0 0 0 0 0 
ITEM: TIMESTEP
31000
ITEM: NUMBER OF ATOMS
1
ITEM: BOX BOUNDS pp pp pp
0 2e-05
0 1e-05
-5e-06 5e-06
ITEM: ATOMS id x y z vx vy vz fx fy fz 
2 9.69e-06 0 0 -1e-06 0 0 0 0 0 
ITEM: TIMESTEP
32000
ITEM: NUMBER OF ATOMS
1
ITEM: BOX BOUNDS pp pp pp
0 2e-05
0 1e-05
-5e-06 5e-06
ITEM: ATOMS id x y z vx vy vz fx fy fz 
2 9.68e-06 0 0 -1e-06 0 0 0 0 0 
ITEM: TIMESTEP
33000
ITEM: NUMBER OF ATOMS
1
ITEM: BOX BOUNDS pp pp pp
0 2e-05
0 1e-05
-5e-06 5e-06
ITEM: ATOMS id x y z vx vy vz fx fy fz 
2 9.67e-06 0 0 -1e-06 0 0 0 0 0 
ITEM: TIMESTEP
34000
ITEM: NUMBER OF ATOMS
1
ITEM: BOX BOUNDS pp pp pp
0 2e-05
0 1e-05
-5e-06 5e-06
ITEM: ATOMS id x y z vx vy vz fx fy fz 
2 9.66e-06 0 0 -1e-06 0 0 0 0 0 
ITEM: TIMESTEP
35000
ITEM: NUMBER OF ATOMS
1
ITEM: BOX BOUNDS pp pp pp
0 2e-05
0 1e-05
-5e-06 5e-06
ITEM: ATOMS id x y z vx vy vz fx fy fz 
2 9.65e-06 0 0 -1e-06 0 0 0 0 0 
ITEM: TIMESTEP
36000
ITEM: NUMBER OF ATOMS
1
ITEM: BOX BOUNDS pp pp pp
0 2e-05
0 1e-05
-5e-06 5e-06
ITEM: ATOMS id x y z vx vy vz fx fy fz 
2 9.64e-06 0 0 -1e-06 0 0 0 0 0 
ITEM: TIMESTEP
37000
ITEM: NUMBER OF ATOMS
1
ITEM: BOX BOUNDS pp pp pp
0 2e-05
0 1e-05
-5e-06 5e-06
ITEM: ATOMS id x y z vx vy vz fx fy fz 
2 9.63e-06 0 0 -1e-06 0 0 0 0 0 
ITEM: TIMESTEP
38000
ITEM: NUMBER OF ATOMS
1
ITEM: BOX BOUNDS pp pp pp
0 2e-05
0 1e-05
-5e-06 5e-06
ITEM: ATOMS id x y z vx vy vz fx fy fz 
2 9.62e-06 0 0 -1e-06 0 0 0 0 0 
ITEM: TIMESTEP
39000
ITEM: NUMBER OF ATOMS
1
ITEM: BOX BOUNDS pp pp pp
0 2e-05
0 1e-05
-5e-06 5e-06
ITEM: ATOMS id x y z vx vy vz fx fy fz 
2 9.61e-06 0 0 -1e-06 0 0 0 0 0 
ITEM: TIMESTEP
40000
ITEM: NUMBER OF ATOMS
1
ITEM: BOX BOUNDS pp pp pp
0 2e-05
0 1e-05
-5e-06 5e-06
ITEM: ATOMS id x y z vx vy vz fx fy fz 
2 9.6e-06 0 0 -1e-06 0 0 0 0 0 
ITEM: TIMESTEP
41000
ITEM: NUMBER OF ATOMS
1
ITEM: BOX BOUNDS pp pp pp
0 2e-05
0 1e-05
-5e-06 5e-06
ITEM: ATOMS id x y z vx vy vz fx fy fz 
2 9.59e-06 0 0 -1e-06 0 0 0 0 0 
ITEM: TIMESTEP
42000
ITEM: NUMBER OF ATOMS
1
ITEM: BOX BOUNDS pp pp pp
0 2e-05
0 1e-05
-5e-06 5e-06
ITEM: ATOMS id x y z vx vy vz fx fy fz 
2 9.58e-06 0 0 -1e-06 0 0 0 0 0 
ITEM: TIMESTEP
43000
ITEM: NUMBER OF ATOMS
1
ITEM: BOX BOUNDS pp pp pp
0 2e-05
0 1e-05
-5e-06 5e-06
ITEM: ATOMS id x y z vx vy vz fx fy fz 
2 9.57e-06 0 0 -1e-06 0 0 0 0 0 
ITEM: TIMESTEP
44000
ITEM: NUMBER OF ATOMS
1
ITEM: BOX BOUNDS pp pp pp
0 2e-05
0 1e-05
-5e-06 5e-06
ITEM: ATOMS id x y z vx vy vz fx fy fz 
2 9.56e-06 0 0 -1e-06 0 0 0 0 0 
ITEM: TIMESTEP
45000
ITEM: NUMBER OF ATOMS
1
ITEM: BOX BOUNDS pp pp pp
0 2e-05
0 1e-05
-5e-06 5e-06
ITEM: ATOMS id x y z vx vy vz fx fy fz 
2 9.55e-06 0 0 -1e-06 0 0 0 0 0 
ITEM: TIMESTEP
46000
ITEM: NUMBER OF ATOMS
1
ITEM: BOX BOUNDS pp pp pp
0 2e-05
0 1e-05
-5e-06 5e-06
ITEM: ATOMS id x y z vx vy vz fx fy fz 
2 9.54e-06 0 0 -1e-06 0 0 0 0 0 
ITEM: TIMESTEP
47000
ITEM: NUMBER OF ATOMS
1
ITEM: BOX BOUNDS pp pp pp
0 2e-05
0 1e-05
-5e-06 5e-06
ITEM: ATOMS id x y z vx vy vz fx fy fz 
2 9.53e-06 0 0 -1e-06 0 0 0 0 0 
ITEM: TIMESTEP
48000
ITEM: NUMBER OF ATOMS
1
ITEM: BOX BOUNDS pp pp pp
0 2e-05
0 1e-05
-5e-06 5e-06
ITEM: ATOMS id x y z vx vy vz fx fy fz 
2 9.52e-06 0 0 -1e-06 0 0 0 0 0 
ITEM: TIMESTEP
49000
ITEM: NUMBER OF ATOMS
1
ITEM: BOX BOUNDS pp pp pp
0 2e-05
0 1e-05
-5e-06 5e-06
ITEM: ATOMS id x y z vx vy vz fx fy fz 
2 9.51e-06 0 0 -1e-06 0 0 0 0 0 
ITEM: TIMESTEP
50000
ITEM: NUMBER OF ATOMS
1
ITEM: BOX BOUNDS pp pp pp
0 2e-05
0 1e-05
-5e-06 5e-06
ITEM: ATOMS id x y z vx vy vz fx fy fz 
2 9.5e-06 0 0 -1e-06 0 0 0 0 0 
ITEM: TIMESTEP
51000
ITEM: NUMBER OF ATOMS
1
ITEM: BOX BOUNDS pp pp pp
0 2e-05
0 1e-05
-5e-06 5e-06
ITEM: ATOMS id x y z vx vy vz fx fy fz 
2 9.49e-06 0 0 -1e-06 0 0 0 0 0 
ITEM: TIMESTEP
52000
ITEM: NUMBER OF ATOMS
1
ITEM: BOX BOUNDS pp pp pp
0 2e-05
0 1e-05
-5e-06 5e-06
ITEM: ATOMS id x y z vx vy vz fx fy fz 
2 9.48e-06 0 0 -1e-06 0 0 0 0 0 
ITEM: TIMESTEP
53000
ITEM: NUMBER OF ATOMS
1
ITEM: BOX BOUNDS pp pp pp
0 2e-05
0 1e-05
-5e-06 5e-06
ITEM: ATOMS id x y z vx vy vz fx fy fz 
2 9.47e-06 0 0 -1e-06 0 0 0 0 0 
ITEM: TIMESTEP
54000
ITEM: NUMBER OF ATOMS
1
ITEM: BOX BOUNDS pp pp pp
0 2e-05
0 1e-05
-5e-06 5e-06
ITEM: ATOMS id x y z vx vy vz fx fy fz 
2 9.46e-06 0 0 -1e-06 0 0 0 0 0 
ITEM: TIMESTEP
55000
ITEM: NUMBER OF ATOMS
1
ITEM: BOX BOUNDS pp pp pp
0 2e-05
0 1e-05
-5e-06 5e-06
ITEM: ATOMS id x y z vx vy vz fx fy fz 
2 9.45e-06 0 0 -1e-06 0 0 0 0 0 
ITEM: TIMESTEP
56000
ITEM: NUMBER OF ATOMS
1
ITEM: BOX BOUNDS pp pp pp
0 2e-05
0 1e-05
-5e-06 5e-06
ITEM: ATOMS id x y z vx vy vz fx fy fz 
2 9.44e-06 0 0 -1e-06 0 0 0 0 0 
ITEM: TIMESTEP
57000
ITEM: NUMBER OF ATOMS
1
ITEM: BOX BOUNDS pp pp pp
0 2e-05
0 1e-05
-5e-06 5e-06
ITEM: ATOMS id x y z vx vy vz fx fy fz 
2 9.43e-06 0 0 -1e-06 0 0 0 0 0 
ITEM: TIMESTEP
58000
ITEM: NUMBER OF ATOMS
1
ITEM: BOX BOUNDS pp pp pp
0 2e-05
0 1e-05
-5e-06 5e-06
ITEM: ATOMS id x y z vx vy vz fx fy fz 
2 9.42e-06 0 0 -1e-06 0 0 0 0 0 
ITEM: TIMESTEP
59000
ITEM: NUMBER OF ATOMS
1
ITEM: BOX BOUNDS pp pp pp
0 2e-05
0 1e-05
-5e-06 5e-06
ITEM: ATOMS id x y z vx vy vz fx fy fz 
2 9.41e-06 0 0 -1e-06 0 0 0 0 0 
ITEM: TIMESTEP
60000
ITEM: NUMBER OF ATOMS
1
ITEM: BOX BOUNDS pp pp pp
0 2e-05
0 1e-05
-5e-06 5e-06
ITEM: ATOMS id x y z vx vy vz fx fy fz 
2 9.4e-06 0 0 -1e-06 0 0 0 0 0 
ITEM: TIMESTEP
61000
ITEM: NUMBER OF ATOMS
1
ITEM: BOX BOUNDS pp pp pp
0 2e-05
0 1e-05
-5e-06 5e-06
ITEM: ATOMS id x y z vx vy vz fx fy fz 
2 9.39e-06 0 0 -1e-06 0 0 0 0 0 
ITEM: TIMESTEP
62000
ITEM: NUMBER OF ATOMS
1
ITEM: BOX BOUNDS pp pp pp
0 2e-05
0 1e-05
-5e-06 5e-06
ITEM: ATOMS id x y z vx vy vz fx fy fz 
2 9.38e-06 0 0 -1e-06 0 0 0 0 0 
ITEM: TIMESTEP
63000
ITEM: NUMBER OF ATOMS
1
ITEM: BOX BOUNDS pp pp pp
0 2e-05
0 1e-05
-5e-06 5e-06
ITEM: ATOMS id x y z vx vy vz fx fy fz 
2 9.37e-06 0 0 -1e-06 0 0 0 0 0 
ITEM: TIMESTEP
64000
ITEM: NUMBER OF ATOMS
1
ITEM: BOX BOUNDS pp pp pp
0 2e-05
0 1e-05
-5e-06 5e-06
ITEM: ATOMS id x y z vx vy vz fx fy fz 
2 9.36e-06 0 0 -1e-06 0 0 0 0 0 
ITEM: TIMESTEP
65000
ITEM: NUMBER OF ATOMS
1
ITEM: BOX BOUNDS pp pp pp
0 2e-05
0 1e-05
-5e-06 5e-06
ITEM: ATOMS id x y z vx vy vz fx fy fz 
2 9.35e-06 0 0 -1e-06 0 0 0 0 0 
ITEM: TIMESTEP
66000
ITEM: NUMBER OF ATOMS
1
ITEM: BOX BOUNDS pp pp pp
0 2e-05
0 1e-05
-5e-06 5e-06
ITEM: ATOMS id x y z vx vy vz fx fy fz 
2 9.34e-06 0 0 -1e-06 0 0 0 0 0 
ITEM: TIMESTEP
67000
ITEM: NUMBER OF ATOMS
1
ITEM: BOX BOUNDS pp pp pp
0 2e-05
0 1e-05
-5e-06 5e-06
ITEM: ATOMS id x y z vx vy vz fx fy fz 
2 9.33e-06 0 0 -1e-06 0 0 0 0 0 
ITEM: TIMESTEP
68000
ITEM: NUMBER OF ATOMS
1
ITEM: BOX BOUNDS pp pp pp
0 2e-05
0 1e-05
-5e-06 5e-06
ITEM: ATOMS id x y z vx vy vz fx fy fz 
2 9.32e-06 0 0 -1e-06 0 0 0 0 0 
ITEM: TIMESTEP
69000
ITEM: NUMBER OF ATOMS
1
ITEM: BOX BOUNDS pp pp pp
0 2e-05
0 1e-05
-5e-06 5e-06
ITEM: ATOMS id x y z vx vy vz fx fy fz 
2 9.31e-06 0 0 -1e-06 0 0 0 0 0 
ITEM: TIMESTEP
70000
ITEM: NUMBER OF ATOMS
1
ITEM: BOX BOUNDS pp pp pp
0 2e-05
0 1e-05
-5e-06 5e-06
ITEM: ATOMS id x y z vx vy vz fx fy fz 
2 9.3e-06 0 0 -1e-06 0 0 0 0 0 
ITEM: TIMESTEP
71000
ITEM: NUMBER OF ATOMS
1
ITEM: BOX BOUNDS pp pp pp
0 2e-05
0 1e-05
-5e-06 5e-06
ITEM: ATOMS id x y z vx vy vz fx fy fz 
2 9.29e-06 0 0 -1e-06 0 0 0 0 0 
ITEM: TIMESTEP
72000
ITEM: NUMBER OF ATOMS
1
ITEM: BOX BOUNDS pp pp pp
0 2e-05
0 1e-05
-5e-06 5e-06
ITEM: ATOMS id x y z vx vy vz fx fy fz 
2 9.28e-06 0 0 -1e-06 0 0 0 0 0 
ITEM: TIMESTEP
73000
ITEM: NUMBER OF ATOMS
1
ITEM: BOX BOUNDS pp pp pp
0 2e-05
0 1e-05
-5e-06 5e-06
ITEM: ATOMS id x y z vx vy vz fx fy fz 
2 9.27e-06 0 0 -1e-06 0 0 0 0 0 
ITEM: TIMESTEP
74000
ITEM: NUMBER OF ATOMS
1
ITEM: BOX BOUNDS pp pp pp
0 2e-05
0 1e-05
-5e-06 5e-06
ITEM: ATOMS id x y z vx vy vz fx fy fz 
2 9.26e-06 0 0 -1e-06 0 0 0 0 0 
ITEM: TIMESTEP
75000
ITEM: NUMBER OF ATOMS
1
ITEM: BOX BOUNDS pp pp pp
0 2e-05
0 1e-05
-5e-06 5e-06
ITEM: ATOMS id x y z vx vy vz fx fy fz 
2 9.25e-06 0 0 -1e-06 0 0 0 0 0 
ITEM: TIMESTEP
76000
ITEM: NUMBER OF ATOMS
1
ITEM: BOX BOUNDS pp pp pp
0 2e-05
0 1e-05
-5e-06 5e-06
ITEM: ATOMS id x y z vx vy vz fx fy fz 
2 9.24e-06 0 0 -1e-06 0 0 0 0 0 
ITEM: TIMESTEP
77000
ITEM: NUMBER OF ATOMS
1
ITEM: BOX BOUNDS pp pp pp
0 2e-05
0 1e-05
-5e-06 5e-06
ITEM: ATOMS id x y z vx vy vz fx fy fz 
2 9.23e-06 0 0 -1e-06 0 0 0 0 0 
ITEM: TIMESTEP
78000
ITEM: NUMBER OF ATOMS
1
ITEM: BOX BOUNDS pp pp pp
0 2e-05
0 1e-05
-5e-06 5e-06
ITEM: ATOMS id x y z vx vy vz fx fy fz 
2 9.22e-06 0 0 -1e-06 0 0 0 0 0 
ITEM: TIMESTEP
79000
ITEM: NUMBER OF ATOMS
1
ITEM: BOX BOUNDS pp pp pp
0 2e-05
0 1e-05
-5e-06 5e-06
ITEM: ATOMS id x y z vx vy vz fx fy fz 
2 9.21e-06 0 0 -1e-06 0 0 0 0 0 
ITEM: TIMESTEP
80000
ITEM: NUMBER OF ATOMS
1
ITEM: BOX BOUNDS pp pp pp
0 2e-05
0 1e-05
-5e-06 5e-06
ITEM: ATOMS id x y z vx vy vz fx fy fz 
2 9.2e-06 0 0 -1e-06 0 0 0 0 0 
ITEM: TIMESTEP
81000
ITEM: NUMBER OF ATOMS
1
ITEM: BOX BOUNDS pp pp pp
0 2e-05
0 1e-05
-5e-06 5e-06
ITEM: ATOMS id x y z vx vy vz fx fy fz 
2 9.19e-06 0 0 -1e-06 0 0 0 0 0 
ITEM: TIMESTEP
82000
ITEM: NUMBER OF ATOMS
1
ITEM: BOX BOUNDS pp pp pp
0 2e-05
0 1e-05
-5e-06 5e-06
ITEM: ATOMS id x y z vx vy vz fx fy fz 
2 9.18e-06 0 0 -1e-06 0 0 0 0 0 
ITEM: TIMESTEP
83000
ITEM: NUMBER OF ATOMS
1
ITEM: BOX BOUNDS pp pp pp
0 2e-05
0 1e-05
-5e-06 5e-06
ITEM: ATOMS id x y z vx vy vz fx fy fz 
2 9.17e-06 0 0 -1e-06 0 0 0 0 0 
ITEM: TIMESTEP
84000
ITEM: NUMBER OF ATOMS
1
ITEM: BOX BOUNDS pp pp pp
0 2e-05
0 1e-05
-5e-06 5e-06
ITEM: ATOMS id x y z vx vy vz fx fy fz 
2 9.16e-06 0 0 -1e-06 0 0 0 0 0 
ITEM: TIMESTEP
85000
ITEM: NUMBER OF ATOMS
1
ITEM: BOX BOUNDS pp pp pp
0 2e-05
0 1e-05
-5e-06 5e-06
ITEM: ATOMS id x y z vx vy vz fx fy fz 
2 9.15e-06 0 0 -1e-06 0 0 0 0 0 
ITEM: TIMESTEP
86000
ITEM: NUMBER OF ATOMS
1
ITEM: BOX BOUNDS pp pp pp
0 2e-05
0 1e-05
-5e-06 5e-06
ITEM: ATOMS id x y z vx vy vz fx fy fz 
2 9.14e-06 0 0 -1e-06 0 0 0 0 0 
ITEM: TIMESTEP
87000
ITEM: NUMBER OF ATOMS
1
ITEM: BOX BOUNDS pp pp pp
0 2e-05
0 1e-05
-5e-06 5e-06
ITEM: ATOMS id x y z vx vy vz fx fy fz 
2 9.13e-06 0 0 -1e-06 0 0 0 0 0 
ITEM: TIMESTEP
88000
ITEM: NUMBER OF ATOMS
1
ITEM: BOX BOUNDS pp pp pp
0 2e-05
0 1e-05
-5e-06 5e-06
ITEM: ATOMS id x y z vx vy vz fx fy fz 
2 9.12e-06 0 0 -1e-06 0 0 0 0 0 
ITEM: TIMESTEP
89000
ITEM: NUMBER OF ATOMS
1
ITEM: BOX BOUNDS pp pp pp
0 2e-05
0 1e-05
-5e-06 5e-06
ITEM: ATOMS id x y z vx vy vz fx fy fz 
2 9.11e-06 0 0 -1e-06 0 0 0 0 0 
ITEM: TIMESTEP
90000
ITEM: NUMBER OF ATOMS
1
ITEM: BOX BOUNDS pp pp pp
0 2e-05
0 1e-05
-5e-06 5e-06
ITEM: ATOMS id x y z vx vy vz fx fy fz 
2 9.1e-06 0 0 -1e-06 0 0 0 0 0 
ITEM: TIMESTEP
91000
ITEM: NUMBER OF ATOMS
1
ITEM: BOX BOUNDS pp pp pp
0 2e-05
0 1e-05
-5e-06 5e-06
ITEM: ATOMS id x y z vx vy vz fx fy fz 
2 9.09e-06 0 0 -1e-06 0 0 0 0 0 
ITEM: TIMESTEP
92000
ITEM: NUMBER OF ATOMS
1
ITEM: BOX BOUNDS pp pp pp
0 2e-05
0 1e-05
-5e-06 5e-06
ITEM: ATOMS id x y z vx vy vz fx fy fz 
2 9.08e-06 0 0 -1e-06 0 0 0 0 0 
ITEM: TIMESTEP
93000
ITEM: NUMBER OF ATOMS
1
ITEM: BOX BOUNDS pp pp pp
0 2e-05
0 1e-05
-5e-06 5e-06
ITEM: ATOMS id x y z vx vy vz fx fy fz 
2 9.07e-06 0 0 -1e-06 0 0 0 0 0 
ITEM: TIMESTEP
94000
ITEM: NUMBER OF ATOMS
1
ITEM: BOX BOUNDS pp pp pp
0 2e-05
0 1e-05
-5e-06 5e-06
ITEM: ATOMS id x y z vx vy vz fx fy fz 
2 9.06e-06 0 0 -1e-06 0 0 0 0 0 
ITEM: TIMESTEP
95000
ITEM: NUMBER OF ATOMS
1
ITEM: BOX BOUNDS pp pp pp
0 2e-05
0 1e-05
-5e-06 5e-06
ITEM: ATOMS id x y z vx vy vz fx fy fz 
2 9.05e-06 0 0 -1e-06 0 0 0 0 0 
ITEM: TIMESTEP
96000
ITEM: NUMBER OF ATOMS
1
ITEM: BOX BOUNDS pp pp pp
0 2e-05
0 1e-05
-5e-06 5e-06
ITEM: ATOMS id x y z vx vy vz fx fy fz 
2 9.04e-06 0 0 -1e-06 0 0 0 0 0 
ITEM: TIMESTEP
97000
ITEM: NUMBER OF ATOMS
1
ITEM: BOX BOUNDS pp pp pp
0 2e-05
0 1e-05
-5e-06 5e-06
ITEM: ATOMS id x y z vx vy vz fx fy fz 
2 9.03e-06 0 0 -1e-06 0 0 0 0 0 
ITEM: TIMESTEP
98000
ITEM: NUMBER OF ATOMS
1
ITEM: BOX BOUNDS pp pp pp
0 2e-05
0 1e-05
-5e-06 5e-06
ITEM: ATOMS id x y z vx vy vz fx fy fz 
2 9.02e-06 0 0 -1e-06 0 0 0 0 0 
ITEM: TIMESTEP
99000
ITEM: NUMBER OF ATOMS
1
ITEM: BOX BOUNDS pp pp pp
0 2e-05
0 1e-05
-5e-06 5e-06
ITEM: ATOMS id x y z vx vy vz fx fy fz 
2 9.01e-06 0 0 -1e-06 0 0 0 0 0 
ITEM: TIMESTEP
100000
ITEM: NUMBER OF ATOMS
1
ITEM: BOX BOUNDS pp pp pp
0 2e-05
0 1e-05
-5e-06 5e-06
ITEM: ATOMS id x y z vx vy vz fx fy fz 
2 9e-06 0 0 -1e-06 0 0 0 0 0 
ITEM: TIMESTEP
101000
ITEM: NUMBER OF ATOMS
1
ITEM: BOX BOUNDS pp pp pp
0 2e-05
0 1e-05
-5e-06 5e-06
ITEM: ATOMS id x y z vx vy vz fx fy fz 
2 8.99e-06 0 0 -1e-06 0 0 0 0 0 
ITEM: TIMESTEP
102000
ITEM: NUMBER OF ATOMS
1
ITEM: BOX BOUNDS pp pp pp
0 2e-05
0 1e-05
-5e-06 5e-06
ITEM: ATOMS id x y z vx vy vz fx fy fz 
2 8.98e-06 0 0 -1e-06 0 0 0 0 0 
ITEM: TIMESTEP
103000
ITEM: NUMBER OF ATOMS
1
ITEM: BOX BOUNDS pp pp pp
0 2e-05
0 1e-05
-5e-06 5e-06
ITEM: ATOMS id x y z vx vy vz fx fy fz 
2 8.97e-06 0 0 -1e-06 0 0 0 0 0 
ITEM: TIMESTEP
104000
ITEM: NUMBER OF ATOMS
1
ITEM: BOX BOUNDS pp pp pp
0 2e-05
0 1e-05
-5e-06 5e-06
ITEM: ATOMS id x y z vx vy vz fx fy fz 
2 8.96e-06 0 0 -1e-06 0 0 0 0 0 
ITEM: TIMESTEP
105000
ITEM: NUMBER OF ATOMS
1
ITEM: BOX BOUNDS pp pp pp
0 2e-05
0 1e-05
-5e-06 5e-06
ITEM: ATOMS id x y z vx vy vz fx fy fz 
2 8.95e-06 0 0 -1e-06 0 0 0 0 0 
ITEM: TIMESTEP
106000
ITEM: NUMBER OF ATOMS
1
ITEM: BOX BOUNDS pp pp pp
0 2e-05
0 1e-05
-5e-06 5e-06
ITEM: ATOMS id x y z vx vy vz fx fy fz 
2 8.94e-06 0 0 -1e-06 0 0 0 0 0 
ITEM: TIMESTEP
107000
ITEM: NUMBER OF ATOMS
1
ITEM: BOX BOUNDS pp pp pp
0 2e-05
0 1e-05
-5e-06 5e-06
ITEM: ATOMS id x y z vx vy vz fx fy fz 
2 8.93e-06 0 0 -1e-06 0 0 0 0 0 
ITEM: TIMESTEP
108000
ITEM: NUMBER OF ATOMS
1
ITEM: BOX BOUNDS pp pp pp
0 2e-05
0 1e-05
-5e-06 5e-06
ITEM: ATOMS id x y z vx vy vz fx fy fz 
2 8.92e-06 0 0 -1e-06 0 0 0 0 0 
ITEM: TIMESTEP
109000
ITEM: NUMBER OF ATOMS
1
ITEM: BOX BOUNDS pp pp pp
0 2e-05
0 1e-05
-5e-06 5e-06
ITEM: ATOMS id x y z vx vy vz fx fy fz 
2 8.91e-06 0 0 -1e-06 0 0 0 0 0 
ITEM: TIMESTEP
110000
ITEM: NUMBER OF ATOMS
1
ITEM: BOX BOUNDS pp pp pp
0 2e-05
0 1e-05
-5e-06 5e-06
ITEM: ATOMS id x y z vx vy vz fx fy fz 
2 8.9e-06 0 0 -1e-06 0 0 0 0 0 
ITEM: TIMESTEP
111000
ITEM: NUMBER OF ATOMS
1
ITEM: BOX BOUNDS pp pp pp
0 2e-05
0 1e-05
-5e-06 5e-06
ITEM: ATOMS id x y z vx vy vz fx fy fz 
2 8.89e-06 0 0 -1e-06 0 0 0 0 0 
ITEM: TIMESTEP
112000
ITEM: NUMBER OF ATOMS
1
ITEM: BOX BOUNDS pp pp pp
0 2e-05
0 1e-05
-5e-06 5e-06
ITEM: ATOMS id x y z vx vy vz fx fy fz 
2 8.88e-06 0 0 -1e-06 0 0 0 0 0 
ITEM: TIMESTEP
113000
ITEM: NUMBER OF ATOMS
1
ITEM: BOX BOUNDS pp pp pp
0 2e-05
0 1e-05
-5e-06 5e-06
ITEM: ATOMS id x y z vx vy vz fx fy fz 
2 8.87e-06 0 0 -1e-06 0 0 0 0 0 
ITEM: TIMESTEP
114000
ITEM: NUMBER OF ATOMS
1
ITEM: BOX BOUNDS pp pp pp
0 2e-05
0 1e-05
-5e-06 5e-06
ITEM: ATOMS id x y z vx vy vz fx fy fz 
2 8.86e-06 0 0 -1e-06 0 0 0 0 0 
ITEM: TIMESTEP
115000
ITEM: NUMBER OF ATOMS
1
ITEM: BOX BOUNDS pp pp pp
0 2e-05
0 1e-05
-5e-06 5e-06
ITEM: ATOMS id x y z vx vy vz fx fy fz 
2 8.85e-06 0 0 -1e-06 0 0 0 0 0 
ITEM: TIMESTEP
116000
ITEM: NUMBER OF ATOMS
1
ITEM: BOX BOUNDS pp pp pp
0 2e-05
0 1e-05
-5e-06 5e-06
ITEM: ATOMS id x y z vx vy vz fx fy fz 
2 8.84e-06 0 0 -1e-06 0 0 0 0 0 
ITEM: TIMESTEP
117000
ITEM: NUMBER OF ATOMS
1
ITEM: BOX BOUNDS pp pp pp
0 2e-05
0 1e-05
-5e-06 5e-06
ITEM: ATOMS id x y z vx vy vz fx fy fz 
2 8.83e-06 0 0 -1e-06 0 0 0 0 0 
ITEM: TIMESTEP
118000
ITEM: NUMBER OF ATOMS
1
ITEM: BOX BOUNDS pp pp pp
0 2e-05
0 1e-05
-5e-06 5e-06
ITEM: ATOMS id x y z vx vy vz fx fy fz 
2 8.82e-06 0 0 -1e-06 0 0 0 0 0 
ITEM: TIMESTEP
119000
ITEM: NUMBER OF ATOMS
1
ITEM: BOX BOUNDS pp pp pp
0 2e-05
0 1e-05
-5e-06 5e-06
ITEM: ATOMS id x y z vx vy vz fx fy fz 
2 8.81e-06 0 0 -1e-06 0 0 0 0 0 
ITEM: TIMESTEP
120000
ITEM: NUMBER OF ATOMS
1
ITEM: BOX BOUNDS pp pp pp
0 2e-05
0 1e-05
-5e-06 5e-06
ITEM: ATOMS id x y z vx vy vz fx fy fz 
2 8.8e-06 0 0 -1e-06 0 0 0 0 0 
ITEM: TIMESTEP
121000
ITEM: NUMBER OF ATOMS
1
ITEM: BOX BOUNDS pp pp pp
0 2e-05
0 1e-05
-5e-06 5e-06
ITEM: ATOMS id x y z vx vy vz fx fy fz 
2 8.79e-06 0 0 -1e-06 0 0 0 0 0 
ITEM: TIMESTEP
122000
ITEM: NUMBER OF ATOMS
1
ITEM: BOX BOUNDS pp pp pp
0 2e-05
0 1e-05
-5e-06 5e-06
ITEM: ATOMS id x y z vx vy vz fx fy fz 
2 8.78e-06 0 0 -1e-06 0 0 0 0 0 
ITEM: TIMESTEP
123000
ITEM: NUMBER OF ATOMS
1
ITEM: BOX BOUNDS pp pp pp
0 2e-05
0 1e-05
-5e-06 5e-06
ITEM: ATOMS id x y z vx vy vz fx fy fz 
2 8.77e-06 0 0 -1e-06 0 0 0 0 0 
ITEM: TIMESTEP
124000
ITEM: NUMBER OF ATOMS
1
ITEM: BOX BOUNDS pp pp pp
0 2e-05
0 1e-05
-5e-06 5e-06
ITEM: ATOMS id x y z vx vy vz fx fy fz 
2 8.76e-06 0 0 -1e-06 0 0 0 0 0 
ITEM: TIMESTEP
125000
ITEM: NUMBER OF ATOMS
1
ITEM: BOX BOUNDS pp pp pp
0 2e-05
0 1e-05
-5e-06 5e-06
ITEM: ATOMS id x y z vx vy vz fx fy fz 
2 8.75e-06 0 0 -1e-06 0 0 0 0 0 
ITEM: TIMESTEP
126000
ITEM: NUMBER OF ATOMS
1
ITEM: BOX BOUNDS pp pp pp
0 2e-05
0 1e-05
-5e-06 5e-06
ITEM: ATOMS id x y z vx vy vz fx fy fz 
2 8.74e-06 0 0 -1e-06 0 0 0 0 0 
ITEM: TIMESTEP
127000
ITEM: NUMBER OF ATOMS
1
ITEM: BOX BOUNDS pp pp pp
0 2e-05
0 1e-05
-5e-06 5e-06
ITEM: ATOMS id x y z vx vy vz fx fy fz 
2 8.73e-06 0 0 -1e-06 0 0 0 0 0 
ITEM: TIMESTEP
128000
ITEM: NUMBER OF ATOMS
1
ITEM: BOX BOUNDS pp pp pp
0 2e-05
0 1e-05
-5e-06 5e-06
ITEM: ATOMS id x y z vx vy vz fx fy fz 
2 8.72e-06 0 0 -1e-06 0 0 0 0 0 
ITEM: TIMESTEP
129000
ITEM: NUMBER OF ATOMS
1
ITEM: BOX BOUNDS pp pp pp
0 2e-05
0 1e-05
-5e-06 5e-06
ITEM: ATOMS id x y z vx vy vz fx fy fz 
2 8.71e-06 0 0 -1e-06 0 0 0 0 0 
ITEM: TIMESTEP
130000
ITEM: NUMBER OF ATOMS
1
ITEM: BOX BOUNDS pp pp pp
0 2e-05
0 1e-05
-5e-06 5e-06
ITEM: ATOMS id x y z vx vy vz fx fy fz 
2 8.7e-06 0 0 -1e-06 0 0 0 0 0 
ITEM: TIMESTEP
131000
ITEM: NUMBER OF ATOMS
1
ITEM: BOX BOUNDS pp pp pp
0 2e-05
0 1e-05
-5e-06 5e-06
ITEM: ATOMS id x y z vx vy vz fx fy fz 
2 8.69e-06 0 0 -1e-06 0 0 0 0 0 
ITEM: TIMESTEP
132000
ITEM: NUMBER OF ATOMS
1
ITEM: BOX BOUNDS pp pp pp
0 2e-05
0 1e-05
-5e-06 5e-06
ITEM: ATOMS id x y z vx vy vz fx fy fz 
2 8.68e-06 0 0 -1e-06 0 0 0 0 0 
ITEM: TIMESTEP
133000
ITEM: NUMBER OF ATOMS
1
ITEM: BOX BOUNDS pp pp pp
0 2e-05
0 1e-05
-5e-06 5e-06
ITEM: ATOMS id x y z vx vy vz fx fy fz 
2 8.67e-06 0 0 -1e-06 0 0 0 0 0 
ITEM: TIMESTEP
134000
ITEM: NUMBER OF ATOMS
1
ITEM: BOX BOUNDS pp pp pp
0 2e-05
0 1e-05
-5e-06 5e-06
ITEM: ATOMS id x y z vx vy vz fx fy fz 
2 8.66e-06 0 0 -1e-06 0 0 0 0 0 
ITEM: TIMESTEP
135000
ITEM: NUMBER OF ATOMS
1
ITEM: BOX BOUNDS pp pp pp
0 2e-05
0 1e-05
-5e-06 5e-06
ITEM: ATOMS id x y z vx vy vz fx fy fz 
2 8.65e-06 0 0 -1e-06 0 0 0 0 0 
ITEM: TIMESTEP
136000
ITEM: NUMBER OF ATOMS
1
ITEM: BOX BOUNDS pp pp pp
0 2e-05
0 1e-05
-5e-06 5e-06
ITEM: ATOMS id x y z vx vy vz fx fy fz 
2 8.64e-06 0 0 -1e-06 0 0 0 0 0 
ITEM: TIMESTEP
137000
ITEM: NUMBER OF ATOMS
1
ITEM: BOX BOUNDS pp pp pp
0 2e-05
0 1e-05
-5e-06 5e-06
ITEM: ATOMS id x y z vx vy vz fx fy fz 
2 8.63e-06 0 0 -1e-06 0 0 0 0 0 
ITEM: TIMESTEP
138000
ITEM: NUMBER OF ATOMS
1
ITEM: BOX BOUNDS pp pp pp
0 2e-05
0 1e-05
-5e-06 5e-06
ITEM: ATOMS id x y z vx vy vz fx fy fz 
2 8.62e-06 0 0 -1e-06 0 0 0 0 0 
ITEM: TIMESTEP
139000
ITEM: NUMBER OF ATOMS
1
ITEM: BOX BOUNDS pp pp pp
0 2e-05
0 1e-05
-5e-06 5e-06
ITEM: ATOMS id x y z vx vy vz fx fy fz 
2 8.61e-06 0 0 -1e-06 0 0 0 0 0 
ITEM: TIMESTEP
140000
ITEM: NUMBER OF ATOMS
1
ITEM: BOX BOUNDS pp pp pp
0 2e-05
0 1e-05
-5e-06 5e-06
ITEM: ATOMS id x y z vx vy vz fx fy fz 
2 8.6e-06 0 0 -1e-06 0 0 0 0 0 
ITEM: TIMESTEP
141000
ITEM: NUMBER OF ATOMS
1
ITEM: BOX BOUNDS pp pp pp
0 2e-05
0 1e-05
-5e-06 5e-06
ITEM: ATOMS id x y z vx vy vz fx fy fz 
2 8.59e-06 0 0 -1e-06 0 0 0 0 0 
ITEM: TIMESTEP
142000
ITEM: NUMBER OF ATOMS
1
ITEM: BOX BOUNDS pp pp pp
0 2e-05
0 1e-05
-5e-06 5e-06
ITEM: ATOMS id x y z vx vy vz fx fy fz 
2 8.58e-06 0 0 -1e-06 0 0 0 0 0 
ITEM: TIMESTEP
143000
ITEM: NUMBER OF ATOMS
1
ITEM: BOX BOUNDS pp pp pp
0 2e-05
0 1e-05
-5e-06 5e-06
ITEM: ATOMS id x y z vx vy vz fx fy fz 
2 8.57e-06 0 0 -1e-06 0 0 0 0 0 
ITEM: TIMESTEP
144000
ITEM: NUMBER OF ATOMS
1
ITEM: BOX BOUNDS pp pp pp
0 2e-05
0 1e-05
-5e-06 5e-06
ITEM: ATOMS id x y z vx vy vz fx fy fz 
2 8.56e-06 0 0 -1e-06 0 0 0 0 0 
ITEM: TIMESTEP
145000
ITEM: NUMBER OF ATOMS
1
ITEM: BOX BOUNDS pp pp pp
0 2e-05
0 1e-05
-5e-06 5e-06
ITEM: ATOMS id x y z vx vy vz fx fy fz 
2 8.55e-06 0 0 -1e-06 0 0 0 0 0 
ITEM: TIMESTEP
146000
ITEM: NUMBER OF ATOMS
1
ITEM: BOX BOUNDS pp pp pp
0 2e-05
0 1e-05
-5e-06 5e-06
ITEM: ATOMS id x y z vx vy vz fx fy fz 
2 8.54e-06 0 0 -1e-06 0 0 0 0 0 
ITEM: TIMESTEP
147000
ITEM: NUMBER OF ATOMS
1
ITEM: BOX BOUNDS pp pp pp
0 2e-05
0 1e-05
-5e-06 5e-06
ITEM: ATOMS id x y z vx vy vz fx fy fz 
2 8.53e-06 0 0 -1e-06 0 0 0 0 0 
ITEM: TIMESTEP
148000
ITEM: NUMBER OF ATOMS
1
ITEM: BOX BOUNDS pp pp pp
0 2e-05
0 1e-05
-5e-06 5e-06
ITEM: ATOMS id x y z vx vy vz fx fy fz 
2 8.52e-06 0 0 -1e-06 0 0 0 0 0 
ITEM: TIMESTEP
149000
ITEM: NUMBER OF ATOMS
1
ITEM: BOX BOUNDS pp pp pp
0 2e-05
0 1e-05
-5e-06 5e-06
ITEM: ATOMS id x y z vx vy vz fx fy fz 
2 8.51e-06 0 0 -1e-06 0 0 0 0 0 
ITEM: TIMESTEP
150000
ITEM: NUMBER OF ATOMS
1
ITEM: BOX BOUNDS pp pp pp
0 2e-05
0 1e-05
-5e-06 5e-06
ITEM: ATOMS id x y z vx vy vz fx fy fz 
2 8.5e-06 0 0 -1e-06 0 0 0 0 0 
ITEM: TIMESTEP
151000
ITEM: NUMBER OF ATOMS
1
ITEM: BOX BOUNDS pp pp pp
0 2e-05
0 1e-05
-5e-06 5e-06
ITEM: ATOMS id x y z vx vy vz fx fy fz 
2 8.49e-06 0 0 -1e-06 0 0 0 0 0 
ITEM: TIMESTEP
152000
ITEM: NUMBER OF ATOMS
1
ITEM: BOX BOUNDS pp pp pp
0 2e-05
0 1e-05
-5e-06 5e-06
ITEM: ATOMS id x y z vx vy vz fx fy fz 
2 8.48e-06 0 0 -1e-06 0 0 0 0 0 
ITEM: TIMESTEP
153000
ITEM: NUMBER OF ATOMS
1
ITEM: BOX BOUNDS pp pp pp
0 2e-05
0 1e-05
-5e-06 5e-06
ITEM: ATOMS id x y z vx vy vz fx fy fz 
2 8.47e-06 0 0 -1e-06 0 0 0 0 0 
ITEM: TIMESTEP
154000
ITEM: NUMBER OF ATOMS
1
ITEM: BOX BOUNDS pp pp pp
0 2e-05
0 1e-05
-5e-06 5e-06
ITEM: ATOMS id x y z vx vy vz fx fy fz 
2 8.46e-06 0 0 -1e-06 0 0 0 0 0 
ITEM: TIMESTEP
155000
ITEM: NUMBER OF ATOMS
1
ITEM: BOX BOUNDS pp pp pp
0 2e-05
0 1e-05
-5e-06 5e-06
ITEM: ATOMS id x y z vx vy vz fx fy fz 
2 8.45e-06 0 0 -1e-06 0 0 0 0 0 
ITEM: TIMESTEP
156000
ITEM: NUMBER OF ATOMS
1
ITEM: BOX BOUNDS pp pp pp
0 2e-05
0 1e-05
-5e-06 5e-06
ITEM: ATOMS id x y z vx vy vz fx fy fz 
2 8.44e-06 0 0 -1e-06 0 0 0 0 0 
ITEM: TIMESTEP
157000
ITEM: NUMBER OF ATOMS
1
ITEM: BOX BOUNDS pp pp pp
0 2e-05
0 1e-05
-5e-06 5e-06
ITEM: ATOMS id x y z vx vy vz fx fy fz 
2 8.43e-06 0 0 -1e-06 0 0 0 0 0 
ITEM: TIMESTEP
158000
ITEM: NUMBER OF ATOMS
1
ITEM: BOX BOUNDS pp pp pp
0 2e-05
0 1e-05
-5e-06 5e-06
ITEM: ATOMS id x y z vx vy vz fx fy fz 
2 8.42e-06 0 0 -1e-06 0 0 0 0 0 
ITEM: TIMESTEP
159000
ITEM: NUMBER OF ATOMS
1
ITEM: BOX BOUNDS pp pp pp
0 2e-05
0 1e-05
-5e-06 5e-06
ITEM: ATOMS id x y z vx vy vz fx fy fz 
2 8.41e-06 0 0 -1e-06 0 0 0 0 0 
ITEM: TIMESTEP
160000
ITEM: NUMBER OF ATOMS
1
ITEM: BOX BOUNDS pp pp pp
0 2e-05
0 1e-05
-5e-06 5e-06
ITEM: ATOMS id x y z vx vy vz fx fy fz 
2 8.4e-06 0 0 -1e-06 0 0 0 0 0 
ITEM: TIMESTEP
161000
ITEM: NUMBER OF ATOMS
1
ITEM: BOX BOUNDS pp pp pp
0 2e-05
0 1e-05
-5e-06 5e-06
ITEM: ATOMS id x y z vx vy vz fx fy fz 
2 8.39e-06 0 0 -1e-06 0 0 0 0 0 
ITEM: TIMESTEP
162000
ITEM: NUMBER OF ATOMS
1
ITEM: BOX BOUNDS pp pp pp
0 2e-05
0 1e-05
-5e-06 5e-06
ITEM: ATOMS id x y z vx vy vz fx fy fz 
2 8.38e-06 0 0 -1e-06 0 0 0 0 0 
ITEM: TIMESTEP
163000
ITEM: NUMBER OF ATOMS
1
ITEM: BOX BOUNDS pp pp pp
0 2e-05
0 1e-05
-5e-06 5e-06
ITEM: ATOMS id x y z vx vy vz fx fy fz 
2 8.37e-06 0 0 -1e-06 0 0 0 0 0 
ITEM: TIMESTEP
164000
ITEM: NUMBER OF ATOMS
1
ITEM: BOX BOUNDS pp pp pp
0 2e-05
0 1e-05
-5e-06 5e-06
ITEM: ATOMS id x y z vx vy vz fx fy fz 
2 8.36e-06 0 0 -1e-06 0 0 0 0 0 
ITEM: TIMESTEP
165000
ITEM: NUMBER OF ATOMS
1
ITEM: BOX BOUNDS pp pp pp
0 2e-05
0 1e-05
-5e-06 5e-06
ITEM: ATOMS id x y z vx vy vz fx fy fz 
2 8.35e-06 0 0 -1e-06 0 0 0 0 0 
ITEM: TIMESTEP
166000
ITEM: NUMBER OF ATOMS
1
ITEM: BOX BOUNDS pp pp pp
0 2e-05
0 1e-05
-5e-06 5e-06
ITEM: ATOMS id x y z vx vy vz fx fy fz 
2 8.34e-06 0 0 -1e-06 0 0 0 0 0 
ITEM: TIMESTEP
167000
ITEM: NUMBER OF ATOMS
1
ITEM: BOX BOUNDS pp pp pp
0 2e-05
0 1e-05
-5e-06 5e-06
ITEM: ATOMS id x y z vx vy vz fx fy fz 
2 8.33e-06 0 0 -1e-06 0 0 0 0 0 
ITEM: TIMESTEP
168000
ITEM: NUMBER OF ATOMS
1
ITEM: BOX BOUNDS pp pp pp
0 2e-05
0 1e-05
-5e-06 5e-06
ITEM: ATOMS id x y z vx vy vz fx fy fz 
2 8.32e-06 0 0 -1e-06 0 0 0 0 0 
ITEM: TIMESTEP
169000
ITEM: NUMBER OF ATOMS
1
ITEM: BOX BOUNDS pp pp pp
0 2e-05
0 1e-05
-5e-06 5e-06
ITEM: ATOMS id x y z vx vy vz fx fy fz 
2 8.31e-06 0 0 -1e-06 0 0 0 0 0 
ITEM: TIMESTEP
170000
ITEM: NUMBER OF ATOMS
1
ITEM: BOX BOUNDS pp pp pp
0 2e-05
0 1e-05
-5e-06 5e-06
ITEM: ATOMS id x y z vx vy vz fx fy fz 
2 8.3e-06 0 0 -1e-06 0 0 0 0 0 
ITEM: TIMESTEP
171000
ITEM: NUMBER OF ATOMS
1
ITEM: BOX BOUNDS pp pp pp
0 2e-05
0 1e-05
-5e-06 5e-06
ITEM: ATOMS id x y z vx vy vz fx fy fz 
2 8.29e-06 0 0 -1e-06 0 0 0 0 0 
ITEM: TIMESTEP
172000
ITEM: NUMBER OF ATOMS
1
ITEM: BOX BOUNDS pp pp pp
0 2e-05
0 1e-05
-5e-06 5e-06
ITEM: ATOMS id x y z vx vy vz fx fy fz 
2 8.28e-06 0 0 -1e-06 0 0 0 0 0 
ITEM: TIMESTEP
173000